# OOMMF OVF 2.0
#
# Segment count: 1
#
# Begin: Segment
# Begin: Header
#
# Title: Oxs_TimeDriver::Spin
# Desc: Oxs vector field output
# Desc:  MIF source file: /home/debasis/Downloads/STD_Prob_4/stdprob4.mif
# Desc:  Iteration: 300, State id: 2136
# Desc:  Stage: 0, Stage iteration: 300
# Desc:  Stage simulation time: 1.40271e-10 s
# Desc:  Total simulation time: 1.40271e-10 s
# meshunit: m
# meshtype: rectangular
# xbase: 1.25e-09
# ybase: 1.25e-09
# zbase: 1.5e-09
# xnodes: 200
# ynodes: 50
# znodes: 1
# xstepsize: 2.5000000000000001e-09
# ystepsize: 2.5000000000000001e-09
# zstepsize: 3e-09
# xmin: 0
# ymin: 0
# zmin: 0
# xmax: 4.9999999999999998e-07
# ymax: 1.2499999999999999e-07
# zmax: 3e-09
# valuedim: 3
# valuelabels: Spin_x Spin_y Spin_z
# valueunits: {} {} {}
#
# End: Header
#
# Begin: Data Text
 -0.73248641563911665 0.66168878598265524 -0.16009872394544306
 -0.74674713596169173 0.64721996742409649 -0.15321562812116166
 -0.7626842070422819 0.63008397592496501 -0.14596911868910389
 -0.77741139820897565 0.61328686493018736 -0.13968084778833278
 -0.78988739249188455 0.59828945380739396 -0.13463891207679071
 -0.79971246814005814 0.58595448608394352 -0.13083313242232622
 -0.80674797096830275 0.57682853019576663 -0.12816613472644864
 -0.81095097477081457 0.57127060218171699 -0.12652436761827404
 -0.81229612912872107 0.56951615681074397 -0.1258028049528955
 -0.810729082085896 0.57172120841390017 -0.12590955209955376
 -0.80614349446302092 0.57798193644622609 -0.12676571885498153
 -0.79836147342129338 0.58835206327465173 -0.12829967808627396
 -0.78712674617632383 0.60283973542649238 -0.13044438985556212
 -0.77209520694342115 0.62140597782539164 -0.13313001967199098
 -0.7528366914243666 0.64394417249406177 -0.13628212926187749
 -0.72883307053555424 0.67026459417387696 -0.13981319354997848
 -0.69948934577475963 0.70006250567023354 -0.14362152799045505
 -0.66414397622683841 0.73289316978097452 -0.14758177573806508
 -0.62209767481543832 0.76813289105764904 -0.15154650990584739
 -0.57264758979250963 0.80494991611213429 -0.15533953281730137
 -0.51514466148732285 0.84227058304708491 -0.15876474002320312
 -0.44905859037346813 0.87876618924383287 -0.16160559103467281
 -0.37406094614296453 0.91285253984814174 -0.1636418316428507
 -0.29010545864728765 0.94272363270630333 -0.16465410775342892
 -0.19750634699915551 0.96641023156127881 -0.16444606176106732
 -0.096991169669406824 0.98187179556546822 -0.16285112857823175
 0.010275280789377055 0.98710328586607854 -0.15975456687397199
 0.12270732396742513 0.9802493646809981 -0.15509382865624508
 0.23834711597236233 0.95970266571057128 -0.14886720839621045
 0.35493152725406085 0.92418068352995841 -0.1411158217607037
 0.46995757040461694 0.87277640042740801 -0.13191374786718191
 0.58072565780832819 0.80500577997731959 -0.1213400369465588
 0.68436676328380497 0.72087318162083791 -0.10947140874355656
 0.77787125389784739 0.62098978988502185 -0.096374235239233663
 0.85818010950809853 0.50673674968360816 -0.082126525342062023
 0.92238771565628341 0.38043814225212702 -0.066841019786756342
 0.96808818613523462 0.24542782444313219 -0.050699574500212174
 0.99379589267399948 0.10590769537941605 -0.033960031856722764
 0.99929603730534522 -0.033474087384488635 -0.016938574308659422
 0.98574912149726768 -0.16822207774177989 4.5028920501211329e-05
 0.95547801311768388 -0.29458774748317484 0.016727984979441064
 0.9115184731589242 -0.40993687443908933 0.032951966028355581
 0.85711058579624244 -0.51282743490232852 0.048677158170133066
 0.7952969567914927 -0.60283603033071331 0.063964607817901392
 0.72869272817381436 -0.68027565826176861 0.078942616393943371
 0.65941965862253848 -0.74590459305391321 0.093765942021670295
 0.58914061978725096 -0.80070117688089482 0.10858616605371059
 0.5191441765691982 -0.84571317647687694 0.12352549157028202
 0.45043358715546084 -0.88197547700972689 0.13866809840669442
 0.38380189051040386 -0.91047459176755474 0.1540523501487234
 0.31988689031054374 -0.93213851958562499 0.16967662688823587
 0.25920362645274209 -0.94784098627755708 0.18550187267554741
 0.20216519161671001 -0.95840639577764519 0.2014607054268473
 0.1490881112280813 -0.96461539598584167 0.21746234827556085
 0.10019877976275682 -0.96720465065904571 0.23339958928320334
 0.055631829992119644 -0.96686470086371712 0.24915406822976563
 0.015436749275837991 -0.964234671176596 0.26460008630527043
 -0.020419790453488556 -0.95989636338410422 0.27961044994743567
 -0.052044289648903903 -0.95436912356209858 0.29405946321493054
 -0.079608656622219817 -0.94810509863531078 0.30782979669377886
 -0.10333876457911012 -0.94148729964438516 0.32081577944918344
 -0.12350389111362059 -0.93482852816994222 0.33293004039800095
 -0.14040591697837665 -0.92837360775618227 0.34410554034951435
 -0.15436773074906823 -0.92230272309346428 0.35429971870968779
 -0.16572355639253569 -0.91673743013984021 0.36349441128745269
 -0.17480779445403494 -0.91174801711191411 0.37169582764756565
 -0.1819459101928961 -0.90736216250919499 0.37893217310056393
 -0.18744504922180644 -0.90357425185455065 0.38525047035366938
 -0.19158673592010378 -0.90035429561713831 0.39071302126144614
 -0.1946205154964209 -0.89765668593078762 0.3953926265772576
 -0.19676043833176746 -0.89542695999683619 0.39936936439631299
 -0.1981833519894689 -0.8936079542915597 0.40272594033793252
 -0.19902993633215171 -0.89214369742088573 0.40554495138740271
 -0.19940785547059575 -0.89098233078773204 0.4079056182509363
 -0.19939626701181301 -0.89007778189500442 0.40988128876373786
 -0.1990517136092253 -0.88939033911076371 0.41153765320523422
 -0.19841395539295059 -0.8888869122898162 0.41293093788816637
 -0.1975114111935527 -0.88854069020182569 0.41410709279604785
 -0.19636587993362087 -0.88833055702064467 0.41510150886414049
 -0.19499580584188766 -0.88824052415195975 0.41593918661064466
 -0.19341849131036529 -0.88825888122396168 0.41663586877029452
 -0.19165103533884972 -0.88837733349789727 0.41719970515415372
 -0.18971074852184328 -0.88859020234411645 0.41763295391207356
 -0.1876145425345502 -0.88889340890998847 0.41793455351996361
 -0.18537880319562008 -0.88928366542443615 0.41810197528239335
 -0.18301869026121664 -0.88975777399691203 0.41813306808614042
 -0.18054792331534666 -0.89031199874672717 0.41802750181551868
 -0.17797872451092317 -0.89094176220383658 0.41778744593703049
 -0.17532183217756667 -0.89164168795781562 0.41741748341155827
 -0.17258651844138026 -0.8924056085788421 0.41692460161198169
 -0.16978080408501928 -0.89322710658665039 0.41631696413079911
 -0.16691127717759682 -0.8940999309873997 0.41560310268243977
 -0.16398298171708267 -0.89501849058328231 0.41479089095735672
 -0.16099905121931951 -0.89597834622670336 0.41388658905470788
 -0.15796037441610533 -0.89697652958975915 0.41289420615871525
 -0.15486508864922829 -0.89801159438268385 0.41181546919941786
 -0.15170812284043436 -0.89908379341498423 0.41064945864173941
 -0.14848110858060379 -0.90019463548072665 0.40939342770298204
 -0.14517187419902489 -0.90134684579680979 0.40804287827835523
 -0.14176470867533389 -0.90254386533479369 0.40659234931406119
 -0.13824038968205915 -0.90378947930249798 0.40503601292066882
 -0.13457636632115474 -0.90508765315781037 0.40336774998638864
 -0.13074724635447429 -0.90644209442546508 0.40158173143744808
 -0.12672515878248047 -0.90785624098824202 0.39967209038192092
 -0.12247998531057154 -0.90933317868146757 0.39763277448844742
 -0.11798010375878419 -0.91087555716244661 0.39545722206209488
 -0.11319237240496956 -0.91248570936045392 0.39313778378869141
 -0.10808262992150784 -0.91416555161037238 0.39066544428468969
 -0.10261593892646062 -0.91591651547602349 0.3880295166047299
 -0.096756610647084865 -0.91773942344240511 0.38521748267139994
 -0.090468233860530253 -0.91963406634422817 0.38221549246640457
 -0.083713816592589432 -0.92159902615675193 0.37900822141271379
 -0.076455165805559541 -0.92363102290217536 0.37558000632931149
 -0.068652992725278555 -0.92572459083075032 0.37191497485460689
 -0.060266215152236499 -0.92787153994615146 0.36799781068531079
 -0.051251808151835387 -0.93006052439209463 0.36381406395117488
 -0.041564451788545793 -0.9322766324356464 0.35935035405849841
 -0.03115653930510107 -0.93450110228814365 0.35459407761660955
 -0.019978664919813396 -0.93671091242352833 0.34953328810673068
 -0.0079800539887816841 -0.93887854662268788 0.34415605970257973
 0.0048900125402103331 -0.94097164030943625 0.33845008481417993
 0.018680998762928041 -0.94295266617162043 0.33240230090216299
 0.033439624164878654 -0.94477850914931494 0.32599901868764802
 0.049208339636405224 -0.94640024574472759 0.31922580435257331
 0.066024263293320715 -0.94776265535838511 0.31206849530927888
 0.083918627003689239 -0.94880405716554728 0.30451358778880883
 0.10291643839382993 -0.94945604791946003 0.29654918610154551
 0.1230368981711548 -0.94964329950411253 0.28816579497810524
 0.14429392417990536 -0.94928348063034618 0.27935664811688155
 0.16669662789327855 -0.94828715153610077 0.27011796030726687
 0.19024924076210406 -0.94655770979418052 0.26044908987869186
 0.21495104243759572 -0.94399147486527091 0.25035204160677754
 0.24079434037666303 -0.94047786252821952 0.23983218244622509
 0.26776328237400471 -0.93589987351867443 0.22889790597563014
 0.29583037615611407 -0.93013494209395542 0.21756235437043445
 0.32495475100232379 -0.92305607205902007 0.20584435293685094
 0.35507867542535443 -0.9145338886985207 0.19377022650587433
 0.3861266804537235 -0.90443845769830766 0.18137602619446377
 0.41800353218423197 -0.89264252653233966 0.16870793374191703
 0.45059489076487852 -0.87902392590826983 0.15582420254055501
 0.4837670395390879 -0.86346954826096634 0.14279282433508181
 0.51736826904748834 -0.84587823877553558 0.12969224860724565
 0.55123038341083253 -0.82616463907344828 0.11660640440981587
 0.58516946339572695 -0.8042628200066001 0.10362439608600019
 0.61898920604782504 -0.78012905476384276 0.09083512927032536
 0.65248146092268255 -0.75374591044533468 0.078326532153130846
 0.68543239572130832 -0.72512231888895295 0.066181972959827362
 0.71762344196881045 -0.69429721377186315 0.054479119719991212
 0.74883992988060011 -0.6613356104851964 0.043289371912635329
 0.77887293981110517 -0.62633006652583667 0.032674017135143389
 0.80752755354303196 -0.58939339598568741 0.022686450521504222
 0.83462475083475285 -0.55065678220580416 0.013365384572707945
 0.86000569579291675 -0.5102624224963902 0.0047395560822429345
 0.8835322212383151 -0.46835957583744192 -0.0031814705814317942
 0.90508664891163426 -0.42509998609743532 -0.010399989512896373
 0.92457176573006605 -0.38063122511899594 -0.016938727201302951
 0.94190692751574423 -0.33509713856997597 -0.02283084799268327
 0.95702820711118297 -0.28862767656704408 -0.028126057545708499
 0.96988244014135894 -0.24134378049533944 -0.032882091199626318
 0.98042713294187123 -0.19334216579164015 -0.037167780649110277
 0.98862276445446073 -0.14470387275740601 -0.041058723938136116
 0.99443028965156399 -0.095477635689418403 -0.044636533318184055
 0.99780207067721061 -0.045693284496871878 -0.047991160687763011
 0.9986767904881918 0.0046526381714985954 -0.05121543808510727
 0.99697041120781482 0.055580501227106602 -0.054413298553426928
 0.99256929512391068 0.10713751996138524 -0.057686620578319373
 0.98532171338336116 0.15938045208134502 -0.061147302717483941
 0.97503007472252223 0.21237850233930852 -0.064897805284191812
 0.96144245396354888 0.2661969136382582 -0.069047888353047066
 0.94424519158762232 0.3208903044984317 -0.073691455695746436
 0.92305476806554498 0.37648472694641033 -0.078924936031332715
 0.89741616574838234 0.43295469482364868 -0.084820149042743917
 0.86680170162655013 0.49019737758661658 -0.091440368899743218
 0.83062795169577741 0.54799093596874981 -0.098808602650634
 0.78827455017292125 0.60596352944583254 -0.10691788686290177
 0.73913730892611085 0.66354393583602589 -0.11569565146842367
 0.68268408068542641 0.71994121731351901 -0.12500835808786095
 0.61855940104473484 0.77411810544164461 -0.13463070306069747
 0.54668062954386043 0.82482102563543169 -0.14425867374699855
 0.4673738253858431 0.87063113775735768 -0.15350286418022463
 0.38145399643865291 0.91009466259215666 -0.16192761877533102
 0.29029660441990063 0.94188098998612735 -0.16908010576359489
 0.19578301654184771 0.96498706918685195 -0.17455362137734143
 0.10019820101433237 0.97890978317510358 -0.17803358367893188
 0.0059935523420162045 0.98376715223505606 -0.17934956792156409
 -0.084440101604909501 0.98031133963009487 -0.17849242738447266
 -0.16903750591177119 0.96983812864353558 -0.17561413902169926
 -0.24620059420437684 0.95401571254691109 -0.17099499298816093
 -0.31489656466100685 0.93467376354257536 -0.16500033124165012
 -0.37460928395139054 0.91361577692005824 -0.15803194784658267
 -0.42527496369484596 0.89246540456855339 -0.15048822845204785
 -0.46713802163342877 0.87258670136475858 -0.14273933356218149
 -0.50065258816785951 0.85503856456242822 -0.13511491061998362
 -0.526361135311043 0.84058522540441794 -0.12790791244435931
 -0.54484148592551562 0.82970725171432769 -0.12138217194931657
 -0.55665310329356199 0.82263628238397146 -0.11578803694305274
 -0.56235569912381 0.81936130629819748 -0.11136928393539409
 -0.56256564848063939 0.81962095880902774 -0.10835762562241839
 -0.55818201255885214 0.82280144267977418 -0.10691410935808139
 -0.55116692917895505 0.82751573121594513 -0.10692394853156255
 -0.71501682957463308 0.68213174305043267 -0.15312484627916817
 -0.7299324181178769 0.66756535017677032 -0.14681678454439412
 -0.74683615220495103 0.65007428892416919 -0.14013986099407552
 -0.76244901447876956 0.63294572121429926 -0.1343548075688531
 -0.77567837345810975 0.6176509670058794 -0.12973181531946212
 -0.78612865492700401 0.6050297905318327 -0.12625644724791718
 -0.79366367433318952 0.59562013433463046 -0.12383306351349763
 -0.79824598854026318 0.58977353099502872 -0.12235409235916075
 -0.799850666468088 0.58772725758295996 -0.12171927556705382
 -0.79843067617817132 0.58962929670958752 -0.12184312783011315
 -0.79388264723640301 0.5955732503527722 -0.12264927998628959
 -0.78604085345981201 0.60559567124758007 -0.12407118786552844
 -0.77465744967313255 0.61969297113290478 -0.12604148997211648
 -0.75940865496144716 0.63779899449388433 -0.12849489247528847
 -0.73988293704951158 0.65978712966958808 -0.13135517875346583
 -0.71559640801830793 0.68543449822672009 -0.13454118132371234
 -0.68598975626540815 0.7144142260078199 -0.13795059976880703
 -0.65045583815593511 0.74625301378165798 -0.1414695798772749
 -0.60835267489473088 0.78031726687956193 -0.14495511704674804
 -0.55905169438237179 0.81577116473342715 -0.14825184584910614
 -0.50197562355619674 0.85156680383723882 -0.15117688962866349
 -0.43666967126531059 0.88642154935579509 -0.15354619837272829
 -0.36285990782135552 0.91883478463424872 -0.15516225649948273
 -0.28053061067282248 0.94710838700004774 -0.15584697542686285
 -0.18997729725063184 0.96940718841805396 -0.15542950032972747
 -0.091854890570200895 0.98382612846649209 -0.15378175452559342
 0.012808992591843857 0.98848085667440488 -0.15080293663260205
 0.12262168688003335 0.98158878151958651 -0.14644926050202026
 0.2358558913634172 0.96154748496939468 -0.14070690337790745
 0.35048741736343514 0.92698863691227673 -0.13360627719320861
 0.46421725458497315 0.87683058930607993 -0.12518170075032128
 0.5744802236181854 0.81033163594315016 -0.11547775743102164
 0.67842723622185086 0.72719494947800956 -0.10451789610423647
 0.77293953330485743 0.62772596068120901 -0.09232873951983929
 0.85470898801509387 0.51306973788113375 -0.078942953306796085
 0.92048121042631315 0.38543535873910384 -0.064450954110608388
 0.96746086638235085 0.24822668763947808 -0.049020236252430266
 0.99383294778824716 0.10588806015280321 -0.032920975192109292
 0.99919566598004805 -0.036551976315123774 -0.016491637703608508
 0.98471082602136428 -0.17419696161033899 -8.7647294759788392e-05
 0.95286949595100656 -0.30295850895271442 0.015995797548823416
 0.9069712461563364 -0.420007413523937 0.031574217813824641
 0.85053964190214959 -0.52384312166321589 0.046590787062472092
 0.78685444418958439 -0.61410646799982771 0.061100978878220892
 0.7187005763317591 -0.69123792700613584 0.075230378496039543
 0.64829159384933777 -0.75615604002615888 0.089140633137999026
 0.5773226588629079 -0.80999526637602393 0.10298648460791614
 0.50706568084003234 -0.85394269388584843 0.11690282662628351
 0.43847642164959921 -0.88914708646604856 0.13098048055454609
 0.37228286957586465 -0.91667940072471532 0.14527333309088949
 0.30904646875341912 -0.93752734797399329 0.15978971165845696
 0.24920877712877923 -0.95259775290193327 0.17450646569157763
 0.19310842133267303 -0.96272992819986314 0.18936795652562052
 0.14100190190381903 -0.96870078053821373 0.20429699323328585
 0.09305900408611005 -0.97123235221760129 0.21919794653318855
 0.049376454457723006 -0.97099120077155843 0.23396165021086585
 0.009970956968768558 -0.96858768984663379 0.2484722662485454
 -0.025207618537595719 -0.96457344810996382 0.26260738597556271
 -0.056276816176175574 -0.95943730155979468 0.27624804856637902
 -0.08340923812335671 -0.95360423346113754 0.28927817912984255
 -0.10682671870013484 -0.94743237945707104 0.30159565402716737
 -0.12678982650480597 -0.94121497365019346 0.31311134324956508
 -0.14358772901852682 -0.93518071767575239 0.3237585355828736
 -0.15753070829931035 -0.92949858027686405 0.33349132703267054
 -0.16893770378278966 -0.92428267996710978 0.34228873740369536
 -0.17812960745496106 -0.91959935683577987 0.35015263222652127
 -0.18541790252499013 -0.91547538796129291 0.35710644836008432
 -0.19109796015153019 -0.91190618145082891 0.36319235379849624
 -0.19544029989380238 -0.90886492553789944 0.36846660134184372
 -0.19868589426329269 -0.90630952931509368 0.37299725534305095
 -0.20104163826631713 -0.90419034380896979 0.37685817205656058
 -0.20267931965699437 -0.90245458358875785 0.38012737068385316
 -0.20373628891505186 -0.90105091489489897 0.38288219251642941
 -0.20431804531766729 -0.89993170381818721 0.3851974361551001
 -0.20450322552428765 -0.89905452586946333 0.3871425968087171
 -0.20434831636342229 -0.89838300555346295 0.38877981034534353
 -0.20389364773421748 -0.8978866819303557 0.39016264150445157
 -0.20316858169852217 -0.89754080084431975 0.39133494378901074
 -0.20219561522513138 -0.89732588532208069 0.39233045856098736
 -0.20099398167867213 -0.89722695404271591 0.39317325985903956
 -0.19958129404086147 -0.89723291691763774 0.39387866135199895
 -0.19797512373498982 -0.89733584424300783 0.39445434845974764
 -0.19619246689307099 -0.89753000734606292 0.39490302841050423
 -0.19425051479522709 -0.89781126067521488 0.39522357939091973
 -0.19216522845263612 -0.89817619779691804 0.39541376137511669
 -0.18995170715312279 -0.8986214188555729 0.39547173669380153
 -0.1876235631200413 -0.89914316667881744 0.39539722353214413
 -0.18519293148651814 -0.89973703845542852 0.39519215548753567
 -0.18267043517694023 -0.90039769334509701 0.39486137558780798
 -0.18006547257837205 -0.90111944203691741 0.39441117728609343
 -0.17738603335354389 -0.90189615840865178 0.39384960913883305
 -0.17463871330433625 -0.90272200568276406 0.39318481693917612
 -0.17182865808335315 -0.90359176565181509 0.39242430264639477
 -0.16895913872165297 -0.90450132031783126 0.39157396617463919
 -0.16603109219502066 -0.9054478145001259 0.39063785228965464
 -0.16304291311797747 -0.90643003147990298 0.38961725643680845
 -0.15999000521511977 -0.9074480129472231 0.38851164979882191
 -0.15686422620558846 -0.90850334966789981 0.38731805816296233
 -0.15365425450344358 -0.90959846572973357 0.38603238363524073
 -0.15034507955366055 -0.91073660715009852 0.3846494370862002
 -0.14691835590451816 -0.91192144310163026 0.38316351380285885
 -0.14335269287276961 -0.91315661660921577 0.38156912740542187
 -0.13962387639798166 -0.91444575622879942 0.37986067453046585
 -0.1357050772095541 -0.9157921920906783 0.37803279345223345
 -0.13156782818247714 -0.91719887435269298 0.37607995356506141
 -0.12718139982228058 -0.91866847512190508 0.37399615553697751
 -0.12251416621032822 -0.92020329629212272 0.3717743570647386
 -0.1175331899337148 -0.92180524431416544 0.36940633565073977
 -0.11220466649454187 -0.92347584214432676 0.36688210884788991
 -0.10649409315139097 -0.92521586126064981 0.36419035983339387
 -0.10036648692309801 -0.92702534658315117 0.36131783113362115
 -0.09378573282655879 -0.92890288338168658 0.35825084726120898
 -0.086715279395799885 -0.93084558610600265 0.35497458380323588
 -0.079117026324689088 -0.93284835896501161 0.35147465815023338
 -0.070951558779133977 -0.93490362405009453 0.34773709903432853
 -0.062177399432873322 -0.93700084018846364 0.34374903125082129
 -0.05275110519368157 -0.93912629025522387 0.33949835323946131
 -0.042626996038221607 -0.94126249155788233 0.33497441871731776
 -0.031757380421148326 -0.94338825371125923 0.33016673295231802
 -0.020093606939984455 -0.94547808891870633 0.32506527088382142
 -0.0075864497673084818 -0.94750209559101928 0.3196595448763499
 0.0058121642305212461 -0.94942550926656355 0.31393856262154846
 0.02014796037211327 -0.9512085067830508 0.30789029915929916
 0.03546303187166612 -0.95280562273247416 0.30150260141473328
 0.051794972247598589 -0.95416568099300003 0.29476284376602646
 0.069175897541095599 -0.95523129693126263 0.28765928554872355
 0.087632897369762944 -0.955938709231133 0.28018147599742621
 0.10718803127879348 -0.95621755261790131 0.27232098342949601
 0.12785899137400833 -0.95599069227148725 0.26407172248293481
 0.14965954875026261 -0.95517394647044795 0.25543052177047609
 0.17260029104654712 -0.95367605934938804 0.24639625272002383
 0.19668695018494761 -0.95139846346836443 0.2369708997682613
 0.22192105666438836 -0.94823535374029466 0.22715800343809073
 0.24829578170068836 -0.94407387325648207 0.2169648050356279
 0.2757960494375527 -0.93879447068501021 0.20640126192901673
 0.30439287711822033 -0.932272245535538 0.19548257355533707
 0.33404411518810279 -0.92437740670455992 0.18423066813739269
 0.36468892252864843 -0.91497838975979551 0.17267465377832716
 0.39624972575526624 -0.90394243546212583 0.16085468040960751
 0.42862839674368458 -0.89114008767205988 0.14881882155417028
 0.46170850249598955 -0.87644626144224769 0.13662799686308108
 0.49535450502477718 -0.85974499302603424 0.12434814561674158
 0.52941149988537661 -0.84093220248339906 0.11205576565056914
 0.56370874083593825 -0.81991881463807592 0.099827816302138828
 0.59805593960037506 -0.79663649457550134 0.087746160139175813
 0.63225154046448306 -0.77103747714516901 0.075889382774542741
 0.66607705422056185 -0.74310319850285733 0.064335015471216797
 0.69931069502734555 -0.71283862471159065 0.053156814611666665
 0.73172139464688357 -0.68028246692869665 0.042421289530452815
 0.76308463417224393 -0.6454962919644357 0.032192827623198673
 0.79317909082063465 -0.60857187289046111 0.022521221360036339
 0.82179876136948837 -0.56961896081290531 0.013454935674336458
 0.8487519931133406 -0.5287672937253638 0.0050202860961070083
 0.87386607530405724 -0.48615889806438273 -0.0027583084506133931
 0.89698911901822553 -0.44194209600647133 -0.0098845404705775134
 0.91798665995334605 -0.39627350672993034 -0.016364596287833617
 0.93674679407538475 -0.34930102023545662 -0.022231532829699453
 0.95317045724696159 -0.30117884155997954 -0.027520625505377101
 0.96717877163757526 -0.25203721580274191 -0.032287235001364226
 0.97869995150336131 -0.20200872071068712 -0.036590732216639658
 0.98767512092119436 -0.1511870701981271 -0.040500929843780134
 0.99404359672096698 -0.099663603506730161 -0.044096416567528503
 0.99774405467597427 -0.047483366092943069 -0.04745662549349948
 0.99870091513947967 0.005311831402654398 -0.050678067708974948
 0.99682093043216624 0.058723029966385946 -0.053848290631341507
 0.99198248109797083 0.1127512257761045 -0.057078176921657155
 0.98402928242131771 0.16742558687170347 -0.060456961535064337
 0.97276225008403117 0.22276654911401278 -0.064098903323589765
 0.95793345257187301 0.27879735740582012 -0.068084755615796272
 0.93923845148041085 0.33551755288859236 -0.072519672946935856
 0.91631624008334434 0.39289136078472325 -0.077465649033950743
 0.88874323223543361 0.45082812033221897 -0.083002849791031286
 0.8560513236626881 0.50914362838841976 -0.089156586558898715
 0.81773063365022947 0.56754650538363383 -0.095956109846215526
 0.77328170099147797 0.62558147083552007 -0.10335973228967753
 0.72223572901004385 0.68263207757779198 -0.11130587766671592
 0.66425266474028932 0.73787120068145373 -0.11964317193360774
 0.59916130489254649 0.7903012332615964 -0.12817835786380274
 0.52709529059530813 0.8387513976424914 -0.13662594038108247
 0.44852338196088015 0.88198561283219068 -0.1446656648669602
 0.36436917124043167 0.91877855029919242 -0.15192459497946784
 0.27595925617210154 0.94808632470147436 -0.1580468596555818
 0.18504641158724494 0.96916764136499189 -0.16270190069480586
 0.093620780082093749 0.98173072862497157 -0.16565001059554021
 0.003822059131682268 0.98599154800034539 -0.16675148915639881
 -0.082331214370238076 0.98268281901323395 -0.16600014565212148
 -0.16303520111111586 0.97297720695745049 -0.16350803631606864
 -0.23691030933891827 0.9583500598817507 -0.15949504084322785
 -0.30297991972427707 0.94043043220329825 -0.15425229473102989
 -0.36074071655874129 0.92083098486651849 -0.14810952949234421
 -0.41002653070852557 0.90104540820251799 -0.14140515009110619
 -0.45099061700395504 0.8823420493684454 -0.13446178375539883
 -0.48394300923395878 0.86574955016803368 -0.12758087708362834
 -0.50932691883287895 0.85201897388600678 -0.12103618421960509
 -0.52759695112679861 0.8416626340353095 -0.11508895529307535
 -0.5392286854688354 0.83494551714820386 -0.10999276413323879
 -0.54466774784726824 0.83192443082737244 -0.10601313997584079
 -0.54441886810354945 0.83241330094636179 -0.10342239825314371
 -0.53924972797067539 0.83588897998706491 -0.10246630675366926
 -0.53132696850014893 0.8408679626306369 -0.10311509087346839
 -0.6916895256186022 0.70748573761829503 -0.14501562404172166
 -0.70693037059788144 0.69341947941377624 -0.13935162968501508
 -0.72462307528165137 0.67610562942428143 -0.13342629662161204
 -0.74117409789928745 0.65893119917394705 -0.12833795758995759
 -0.75531434808664721 0.64346547858109249 -0.12430773688250009
 -0.76657105085566835 0.63059742687886244 -0.1213083228958094
 -0.77478278094897535 0.62087998801350341 -0.11924631159630938
 -0.77989613195162932 0.61468167820614983 -0.11801888766022964
 -0.78188903278207278 0.61223774355276206 -0.11753504066676108
 -0.78071182089126501 0.61370389933225933 -0.11771396121542069
 -0.7762752270879395 0.61915854804087356 -0.11848824497596856
 -0.76841910320761631 0.62863494132358888 -0.11979228845251597
 -0.75691996382411475 0.64210092309283673 -0.12156715398423919
 -0.74147019338333808 0.65947633550406293 -0.12374536449583817
 -0.72169688174184166 0.68059669019119151 -0.12626066760831528
 -0.697148676640167 0.70522004068023569 -0.12902874440151257
 -0.66732457892744768 0.73298284401786018 -0.13196233074174599
 -0.63167147564325299 0.76340050533919912 -0.1349474538719827
 -0.58962684542619292 0.79582238815864514 -0.13786554920728852
 -0.54063428629616284 0.82943061385555139 -0.1405682228679081
 -0.48420392934731449 0.86320527832505356 -0.1429097697023822
 -0.41994776168809883 0.89593489867453247 -0.14472226777594022
 -0.34764955125325175 0.92621033495947946 -0.14585679595980919
 -0.26730643843426888 0.95246287514800232 -0.14615655796572116
 -0.1791853845112632 0.97299628276674965 -0.14550199895409754
 -0.083847588319951344 0.98605118926802171 -0.14377981108642504
 0.017832040434688518 0.98985933166693651 -0.14092736372266962
 0.12466817798810248 0.98270941658383282 -0.13689429482118567
 0.23517608293145317 0.96299180166387865 -0.13167763646563235
 0.34757286253542097 0.92924699386071996 -0.12527222209950822
 0.45977105560691389 0.88020374413013547 -0.1176942872249763
 0.56933249770600758 0.81485852379334545 -0.10893159898380572
 0.67343073015387034 0.73259502823526368 -0.098972603731530009
 0.76882145580957151 0.63340949719270545 -0.087783699813435645
 0.85193877618548441 0.51818942589299777 -0.075366043575768163
 0.91915016745424472 0.38903398957320751 -0.061769933022362222
 0.96724992387882536 0.24940681856885344 -0.047157434278908304
 0.99406646048169911 0.10402267486191344 -0.031798667581504715
 0.99900106368216679 -0.04170031812317198 -0.016061078118410562
 0.9832197948838034 -0.18242457506920817 -0.00033069543447276293
 0.94939702816032367 -0.31371715962954089 0.015060766060160821
 0.90112305036302986 -0.43253117442412087 0.02990035544469772
 0.84222376276057143 -0.53732026153669377 0.044114283214889562
 0.77624105601126514 -0.62778605060772696 0.057745109099113352
 0.70613750310921286 -0.70451410246300072 0.070920421131285105
 0.63423254241606764 -0.7685876544341167 0.083797968900885575
 0.56225405499700309 -0.82130960895946137 0.096544828293821938
 0.49146072396855328 -0.86401426203651144 0.10929643998689036
 0.42276013676943219 -0.89797020726026811 0.12216126076478651
 0.35680944818392768 -0.92434215409836162 0.13519837219242525
 0.29409458763171731 -0.9441796640106116 0.14843562778032343
 0.23497088046590539 -0.95843106783567455 0.1618597341541313
 0.17970515876016754 -0.96795111104335607 0.17543290040615406
 0.12847705297144846 -0.97351849488706588 0.18909094894413492
 0.081403523128698016 -0.97584076197955449 0.2027517538306341
 0.038526591390782537 -0.97556199313173075 0.21632036268611607
 -0.00016723276658447999 -0.97326403621455726 0.22968911128860856
 -0.03475673076363784 -0.9694663309059619 0.24274884738419661
 -0.065370118356459353 -0.96462710509734462 0.25538460356407328
 -0.092186554679092439 -0.95914047031387406 0.2674905556136124
 -0.11542433258742063 -0.95333922671373694 0.27896512731092904
 -0.13533510646168256 -0.94749331470818376 0.28972543475211782
 -0.15219673426492947 -0.9418144011015781 0.29970283274731685
 -0.16630208706179572 -0.93645815088966944 0.30885230688986637
 -0.17795498722152117 -0.93153007703816049 0.31714939397114905