# OOMMF OVF 2.0
#
# Segment count: 1
#
# Begin: Segment
# Begin: Header
#
# Title: Oxs_TimeDriver::Spin
# Desc: Oxs vector field output
# Desc:  MIF source file: /home/debasis/Downloads/STD_Prob_4/stdprob4.mif
# Desc:  Iteration: 50, State id: 386
# Desc:  Stage: 0, Stage iteration: 50
# Desc:  Stage simulation time: 2.40841e-11 s
# Desc:  Total simulation time: 2.40841e-11 s
# meshunit: m
# meshtype: rectangular
# xbase: 1.25e-09
# ybase: 1.25e-09
# zbase: 1.5e-09
# xnodes: 200
# ynodes: 50
# znodes: 1
# xstepsize: 2.5000000000000001e-09
# ystepsize: 2.5000000000000001e-09
# zstepsize: 3e-09
# xmin: 0
# ymin: 0
# zmin: 0
# xmax: 4.9999999999999998e-07
# ymax: 1.2499999999999999e-07
# zmax: 3e-09
# valuedim: 3
# valuelabels: Spin_x Spin_y Spin_z
# valueunits: {} {} {}
#
# End: Header
#
# Begin: Data Text
 0.69153155726136906 0.71848941098096786 -0.074545768624971934
 0.70690276943049934 0.70354647124574898 -0.072875492239468695
 0.72587586398408666 0.68415051207462507 -0.071009203018933445
 0.74598296986798052 0.66236491440996659 -0.069152937939218187
 0.76621906748259205 0.63904424873306598 -0.067311134200061143
 0.78608895854887095 0.61464354544926036 -0.06540230336245445
 0.80528856311621066 0.58948782785696063 -0.063359536951519885
 0.82363919210976755 0.56380995446116222 -0.061129505733904931
 0.84101279669029061 0.53782293922478508 -0.058685277939098078
 0.85734129790242763 0.51169187204903566 -0.056011846871301153
 0.87257138067739681 0.48558892227111433 -0.053127998177225341
 0.88668835006681213 0.45965136219648439 -0.050043931567283116
 0.89969019743287182 0.43401251775858263 -0.046804733436439247
 0.91159248924301273 0.4087938386289231 -0.043436517525669467
 0.92242904209873988 0.38409053693585454 -0.039989020107125232
 0.93223703120312285 0.36000274068807586 -0.036498552720097124
 0.94107113652725038 0.33659423224451468 -0.033006648043009269
 0.9489835979231821 0.31393783762350591 -0.029549365154758221
 0.95603782095942003 0.29207413267574073 -0.026160770571173345
 0.96229509366690735 0.27104464821427859 -0.022868130203319712
 0.96781983110579206 0.25087197142229239 -0.019698438340358851
 0.9726760428209198 0.23156745242333701 -0.016668254269774321
 0.97692485882122038 0.21313745534723813 -0.013792945488281713
 0.98062711003909164 0.19557025590854321 -0.011079082103049998
 0.98383786433580456 0.17885864206668892 -0.0085230779195773158
 0.98660945264056565 0.16298561754915644 -0.0061217997683238054
 0.98898922478799711 0.14793724677357192 -0.0038580137754684464
 0.991019469583024 0.13370657307152639 -0.0017214020013403652
 0.9927398255021167 0.12028112734427081 0.00029877553148074286
 0.9941857072783431 0.1076563706296453 0.0022102729046709737
 0.995390738744106 0.095818717400809245 0.0040063222694843494
 0.99638665120374115 0.084742706687674058 0.0056846254266203619
 0.99720218014642614 0.074400149027075091 0.0072408380705435722
 0.99786388122597136 0.06474903393559224 0.0086739350382638129
 0.99839474689657115 0.055749208151585974 0.009997757738757572
 0.99881429729591886 0.047370861826846529 0.011225015235701645
 0.99913970208156144 0.039584795430823772 0.012365261625554123
 0.99938586814025365 0.032366857370336725 0.013426582049049809
 0.99956608962088744 0.02569215678419539 0.014406441607296936
 0.99969229519357017 0.019523713705711737 0.015301618664351559
 0.99977451928136696 0.013822508670690193 0.016119827845247736
 0.99982100907599192 0.0085588133598287399 0.01687295244280013
 0.99983879821551647 0.0037091502532532821 0.017567577731450925
 0.99983399356350378 -0.00075094720168534818 0.018204982646403037
 0.99981176133537475 -0.0048495200971635406 0.018786272921546845
 0.99977631251317567 -0.0086143733708443221 0.019316249868559322
 0.99973109600081833 -0.012069116490526341 0.019800810997046548
 0.99967899929940862 -0.015234656381857963 0.020243606513161719
 0.99962239662494012 -0.018132070076645527 0.020646844808501742
 0.99956317465343381 -0.020782044555101811 0.021013483786817187
 0.99950283132107065 -0.023203527524602099 0.021346814553434627
 0.99944255861489606 -0.025413859565530342 0.021649659842445386
 0.99938328305292967 -0.027429462793718287 0.021924372857533594
 0.99932570361849837 -0.029265760736735407 0.022173257223364273
 0.99927033427957712 -0.030937130203529638 0.022398504493649014
 0.9992175417045992 -0.032456865442750442 0.022602129002568104
 0.99916756926275485 -0.0338373748850542 0.022785973633937071
 0.99912056266421123 -0.035090154089846642 0.022951739531040433
 0.99907658808268551 -0.036225879762999846 0.023101012541807159
 0.99903565048664245 -0.037254431060711718 0.023235240973010069
 0.99899770681080302 -0.038184941616604705 0.023355770603715117
 0.99896267678113571 -0.039025876380961173 0.023463831122947865
 0.99893045421808668 -0.039785018930204627 0.023560558235542872
 0.99890091152292604 -0.040469598977725556 0.023646998059995688
 0.99887391044731499 -0.041086226536430133 0.023724102020655492
 0.99884930132743366 -0.041641058347368573 0.023792761449838128
 0.99882693397585753 -0.042139692592789851 0.023853768519319352
 0.99880665308620964 -0.04258735673621393 0.023907881481769189
 0.99878830896748039 -0.042988782462529594 0.023955760315012162
 0.99877175094734272 -0.043348394975662626 0.02399804497481153
 0.99875683714921393 -0.04367018631193062 0.024035288123504785
 0.99874342740656197 -0.043957893417085933 0.024068024815631563
 0.99873139166835612 -0.044214877001489725 0.024096720688339405
 0.99872060320970868 -0.044444286418958028 0.024121818528982174
 0.9987109455514942 -0.044648945609668783 0.024143713293220188
 0.99870230657949211 -0.044831501323598734 0.024162767264419183
 0.99869458359618413 -0.044994324959958934 0.024179317960644774
 0.99868767919644419 -0.045139631759605087 0.024193657553739516
 0.99868150378233589 -0.045269413881047001 0.024206077127834898
 0.99867597402739994 -0.045385516408274193 0.024216808228548884
 0.99867101242085121 -0.045489612638536632 0.024226103531274648
 0.99866654851622594 -0.04558323334004015 0.024234143536672963
 0.99866251584767862 -0.045667780758468515 0.024241147691094145
 0.9986588553431921 -0.045744521505241449 0.024247255450503949
 0.99865551061537583 -0.045814624951159254 0.024252654661453255
 0.99865243232710343 -0.045879137674744476 0.024257455212407925
 0.9986495732514763 -0.045939027989146043 0.024261812629250357
 0.99864689237334103 -0.045995157258008401 0.024265816736303483
 0.99864435053125977 -0.046048323181430165 0.024269591759586366
 0.99864191396569146 -0.046099227589752635 0.024273213354819582
 0.99863955049014841 -0.046148524152375588 0.024276777285955339
 0.99863723273168858 -0.046196776174052399 0.024280347467032493
 0.99863493449210194 -0.046244514787345294 0.024283996047568736
 0.99863263407949643 -0.046292182330445041 0.02428777483697505
 0.9986303104533456 -0.046340203961347422 0.024291738115570973
 0.9986279470224998 -0.046388915687417223 0.024295924081480558
 0.99862552730895537 -0.046438648140901768 0.024300373778119135
 0.99862303920750439 -0.046489645300121438 0.024305111475491501
 0.99862047056812298 -0.046542148203697654 0.024310166656886054
 0.9986178131771638 -0.04659632125276477 0.024315551627894651
 0.99861505907913106 -0.046652319823449619 0.024321283590189688
 0.9986122036556504 -0.046710234649182135 0.024327365024279141
 0.99860924297436848 -0.046770140257187461 0.024333800083051655
 0.99860617596203083 -0.046832054865621239 0.024340582728294646
 0.99860300263817392 -0.046895975035279938 0.024347703126036926
 0.99859972552407461 -0.046961845787840927 0.02435514778115502
 0.99859634871377578 -0.04702958491745305 0.024362891413117149
 0.99859287846198475 -0.047099062422559339 0.024370913071196269
 0.99858932314918136 -0.047170113795764787 0.024379172606024117
 0.9985856931506556 -0.047242529111460707 0.024387637810538081
 0.9985820013143436 -0.047316057318487842 0.024396257312832358
 0.99857826279608297 -0.047390399895712046 0.024404980411418063
 0.99857449513145269 -0.047465213179526067 0.024413750444914097
 0.99857071902549477 -0.047540099776668593 0.024422490006775585
 0.99856695717744004 -0.047614613639791165 0.024431139992277352
 0.99856323653243717 -0.047688247428541712 0.024439592939703221
 0.99855958574009773 -0.047760439286604874 0.024447784474570439
 0.99855603866160403 -0.047830559043745599 0.024455577564393132
 0.99855263088074475 -0.047897913004697472 0.024462896209106074
 0.99854940387668678 -0.047961733207743794 0.024469576318824057
 0.99854640130282468 -0.04802117513417703 0.02447552213765648
 0.99854367306372138 -0.048075314796304114 0.024480545166483889
 0.99854127200138409 -0.04812313720422793 0.024484521140528487
 0.99853925738758931 -0.048163539506483645 0.024487239902631939
 0.99853769237306622 -0.048195314669033824 0.024488539242359948
 0.99853664656878738 -0.048217155319229946 0.024488188828131426
 0.99853619445622432 -0.048227638068765802 0.024485981442235957
 0.99853641702391993 -0.048225222073185456 0.024481663199711928
 0.99853740087164189 -0.048208240507628661 0.024474979216842361
 0.99853923931189847 -0.048174887313159505 0.024465645030932875
 0.99854203163800337 -0.04812322164017642 0.024453355418416835
 0.99854588406067069 -0.048051137688174102 0.024437790251283873
 0.9985509088792387 -0.04795638627865615 0.024418587009460938
 0.99855722517204026 -0.04783652483827848 0.024395387845083751
 0.9985649580542505 -0.047688956943070925 0.024367764193602832
 0.99857423869468953 -0.047510863985473585 0.024335316284675165
 0.99858520387348682 -0.0472992589962982 0.024297545212383472
 0.99859799515793291 -0.047050904992238775 0.024253997731681114
 0.99861275849506592 -0.046762376205810599 0.024204105900887184
 0.99862964269759191 -0.046429972062709012 0.024147348093240269
 0.99864879864602307 -0.046049775748823574 0.024083087765855358
 0.9986703772497435 -0.045617571644001521 0.024010721795887154
 0.99869452769018974 -0.045128897791658004 0.023929541278072144
 0.9987213950527043 -0.044578965324227192 0.023838853047107741
 0.99875111715875076 -0.04396270867005185 0.023737864700508374
 0.99878382176307789 -0.043274699140434511 0.023625786730713954
 0.99881962129175139 -0.042509201350148275 0.023501742981635036
 0.99885860900839818 -0.041660099161318416 0.023364831428391266
 0.99890085393542249 -0.040720900882400025 0.023214052606334721
 0.99894639440746913 -0.039684666269768555 0.023048391774144486
 0.99899522591103995 -0.038544083165929957 0.022866837556780838
 0.99904729302745632 -0.03729152338024555 0.0226682283933363
 0.99910249255287642 -0.035918737886770143 0.022451139019011964
 0.99916065783428099 -0.034416664379118805 0.022214253288870549
 0.99922151633734091 -0.032775945584833086 0.021956745649690902
 0.99928467532573451 -0.030987561958545982 0.021677376755660178
 0.99934966809815029 -0.029041489924601482 0.021373645806838086
 0.99941592787198985 -0.026925577504913721 0.021043202983301999
 0.99948267890334896 -0.024626866583364559 0.020685550862138385
 0.99954888066782266 -0.022134021180035119 0.020300745358354386
 0.99961329778025354 -0.019436449198943263 0.019886662450576131
 0.99967455089200197 -0.016521241686001102 0.019438129334558813
 0.9997310198493824 -0.013370119079228882 0.018950669294805877
 0.99978059768499217 -0.0099636807701701715 0.018425025322916306
 0.9998206660143889 -0.006287336745656953 0.017863516092602658
 0.99984826960724293 -0.0023278449047944498 0.017263223960241346
 0.99986001801608559 0.0019318409270548771 0.016619637887319301
 0.99985196606979032 0.0065100102629742562 0.015926886473849516
 0.99981947827683315 0.01143079593735467 0.015177211946849756
 0.99975691102491482 0.016723051312524103 0.014368660783778769
 0.99965764499226051 0.022411441345838033 0.013502596244045907
 0.99951405848752783 0.028520916398471902 0.012577925647028551
 0.9993174002203874 0.03507514945813469 0.011596012558448067
 0.9990579044607607 0.042094661519789557 0.010551919541387495
 0.99872421724517457 0.049607296082870976 0.0094368460493766716
 0.99830325490244809 0.057642570070913765 0.0082428979611368514
 0.99777973674738307 0.066235860706395602 0.0069575637119488965
 0.99713557072926962 0.075429382836738085 0.0055733106214170105
 0.99634999966131987 0.085264291432984959 0.0040839663709328856
 0.99539880889070698 0.095786452285846257 0.0024833077644864916
 0.99425452712951656 0.10703896726263011 0.00077121320726992581
 0.99288597010296675 0.11906439237233508 -0.001058698114403104
 0.99125787265298826 0.13190448079975434 -0.0030063014518780791
 0.98933076973312439 0.14559819644405314 -0.0050787056916753613
 0.9870606296546055 0.16018209941498665 -0.0072806876640306674
 0.98439797392381001 0.17569325617806852 -0.0096181426609018641
 0.98128937173066078 0.19215802896547091 -0.012102100336326778
 0.97767532391310097 0.20960409909931313 -0.014733724993318372
 0.97349377748821753 0.22804060405099449 -0.017531346091449369
 0.96867946065354449 0.24746756822763752 -0.020491588114585305
 0.96316706071507796 0.26786288896669291 -0.02363653671532305
 0.9568982704697333 0.28916864181028268 -0.026966582386902679
 0.94982233006564543 0.3112989965298259 -0.030503705810798504
 0.94191619020504047 0.33409618405305824 -0.034258289957427079
 0.93319230069680525 0.35733623048708263 -0.038248507179836272
 0.92373510387480773 0.38066843607191447 -0.042485287429426435
 0.91374110883780812 0.4035738135358094 -0.046961293082884943
 0.90361291625366569 0.42523003596046888 -0.051605368873829847
 0.89410872953369591 0.4443089535246833 -0.056206170385831457
 0.88677630808286489 0.45828222227207899 -0.060043185893894485
 0.67639591089797935 0.7328892624485841 -0.073225000567177859
 0.69218471704545803 0.71820218377546596 -0.071175422084109111
 0.71197871786825484 0.69879318166068827 -0.069096993908625351
 0.73287963019439573 0.67703067372662507 -0.067207994162881646
 0.75389826816332162 0.6537291430477844 -0.065388139523571115
 0.77451669198626849 0.62935252757923632 -0.063555407828714772
 0.79447026215201955 0.60416988567084018 -0.061609672979048534
 0.81356143126129532 0.57842724429166559 -0.059495551306149433
 0.83168859215614521 0.55229222660193644 -0.057161019168699721
 0.84874695641639664 0.52597048721592699 -0.054622802488919736
 0.86470802735518548 0.49959194929877715 -0.051845073279455457
 0.87952992890352444 0.47332446192870919 -0.048898444789781635
 0.89321283817058195 0.44729952425194691 -0.045759822237809542
 0.90576968619980402 0.42163216700077355 -0.042515777209649198
 0.91722071331980681 0.39644931348221973 -0.039167651149658533
 0.92761174051539952 0.37182829527423389 -0.035779570867304461
 0.93698303490308166 0.34787100350278638 -0.032381433349604756
 0.9453954507569049 0.32463198075767358 -0.029008942715962438
 0.95290529182373462 0.30217692737845425 -0.025702322354984698
 0.95957779511152674 0.28054433055968736 -0.022479628994220322
 0.96547673449422922 0.25976756826220448 -0.019377451573947997
 0.97066829250474163 0.23986230715296389 -0.016405472659652812
 0.97521569035233291 0.22083894262961301 -0.013583766372295736
 0.9791816706225368 0.20269206965410458 -0.010916996665453864
 0.98262417552815828 0.18541603542091531 -0.0084037775075822881
 0.9855979298604437 0.16899770096622846 -0.0060413345328052554
 0.98815306036388695 0.1534242227832964 -0.0038127623615611234
 0.99033422585816155 0.13869103015225706 -0.001708581054980026
 0.99218358430883891 0.12478644028568328 0.00028168935533233003
 0.99373885662941019 0.11170674411654502 0.0021652121728389082
 0.99503592012950559 0.099438571234504294 0.0039355054146542074
 0.9961086093833259 0.087956747354217366 0.0055900722073170608
 0.99698762607799507 0.077232845247565213 0.0071246798054010003
 0.99770134275338751 0.067224511241062698 0.008537901175807789
 0.99827439690369135 0.057890711217133871 0.0098434770963208192
 0.99872773562662465 0.049200857953970965 0.011053762558885781
 0.99907979565696547 0.041124792326906356 0.012178397517940849
 0.99934659263690895 0.03363751888480225 0.013225169498892263
 0.99954239627863184 0.026713131582255984 0.014191780812844871
 0.99968000107816657 0.020313723260569089 0.015074750135577906
 0.99977018881953839 0.014399185784006306 0.015881844870868921
 0.99982184555076292 0.008938674152680683 0.016624598156306642
 0.99984253873603013 0.0039076657191583547 0.017309762636084889
 0.99983883427659748 -0.00071926022890054164 0.017938454145712553
 0.99981628315009674 -0.0049710204478135359 0.018511858459727967
 0.99977942355009963 -0.0088764176713727744 0.01903453322658033
 0.99973197077675102 -0.012459945039242932 0.01951246720567347
 0.9996770364606371 -0.015743378903775411 0.019949155219470823
 0.99961717510058212 -0.018748532175629676 0.020346886375844642
 0.99955442253492444 -0.021496897522813082 0.020708447256308361
 0.99949039426609665 -0.024008081662685837 0.021037200019977192
 0.99942637713266225 -0.026300164486855779 0.021335839318997157
 0.99936337229467487 -0.028390103887738855 0.021606760910849249
 0.99930213429457482 -0.030294000959447162 0.021852182961354619
 0.99924322215970685 -0.032026682530996539 0.022074296680652122
 0.99918703132293263 -0.033602041060528033 0.022275081877094864
 0.99913382978896315 -0.035032878311408389 0.022456348956527226
 0.99908377521189962 -0.03633118552844241 0.02261979368686606
 0.99903694351806105 -0.037508014986668649 0.022766956271105102
 0.99899334228709358 -0.038573624505451071 0.022899291660977535
 0.99895292741057251 -0.039537522247432226 0.023018104882486793
 0.99891561687988406 -0.040408441917095791 0.023124622706399797
 0.99888129568164852 -0.041194543639497587 0.023219963645206124
 0.9988498332886524 -0.041903229509074012 0.023305147412990602
 0.99882107724294511 -0.042541484597649372 0.023381140764958414
 0.9987948754248519 -0.043115561290292544 0.023448778212897554
 0.99877106020474893 -0.043631421075094538 0.023508900281584619
 0.99874947458088215 -0.044094335068250626 0.023562186640899239
 0.99872995048910818 -0.044509371119401023 0.02360935997817612
 0.99871233575968155 -0.044880969795303531 0.023650982044600592
 0.99869647091592584 -0.045213423746038629 0.023687661202337777
 0.99868221420817127 -0.045510467883645905 0.023719872201929917
 0.9986694195599457 -0.045775730323496057 0.023748114644147309
 0.9986579584744274 -0.046012345702524375 0.023772799974767091
 0.9986477005886194 -0.046223371836941335 0.023794327161894321
 0.99863853137174852 -0.046411440208677948 0.023813061068110805
 0.99863033713618621 -0.046579112740363908 0.023829309842871294
 0.99862301664461228 -0.046728606680006148 0.023843404651173461
 0.99861647294332501 -0.046862049396001998 0.023855571521979081
 0.99861061687226638 -0.046981318704664446 0.023866117463099617
 0.99860536727325222 -0.047088166245399007 0.02387519743790489
 0.99860064612893173 -0.047184183910765239 0.023883097361006005
 0.99859638625141101 -0.047270808184368046 0.023889915429311414
 0.99859252016557132 -0.047349382006295702 0.023895913730067882
 0.99858899236348153 -0.047421084299836123 0.023901152572934476
 0.99858574556894819 -0.047487036184476333 0.023905859970351641
 0.99858273371462314 -0.047548207198210575 0.023910079867418679
 0.99857990900251337 -0.047605525668005709 0.023913997206761919
 0.99857723339130322 -0.047659781893036775 0.023917653364804899
 0.99857466731950573 -0.047711744230217415 0.023921188311805813
 0.99857217986216118 -0.047762044616769021 0.023924646274445925
 0.99856973841561203 -0.04781131912782257 0.023928127461915825
 0.99856731852472047 -0.047860059036517417 0.023931676150461878
 0.99856489337622978 -0.04790878918387477 0.023935363700051636
 0.99856244449602982 -0.047957876071411012 0.023939226487765027
 0.99855994992665686 -0.048007747998676312 0.023943319205328321
 0.99855739656513076 -0.048058663817865548 0.023947663708795999
 0.99855476708810087 -0.048110957461150267 0.023952304644859035
 0.99855205269416958 -0.048164803151962227 0.023957249374522642
 0.99854924095171338 -0.048220436493008917 0.023962531151379193
 0.9985463265647645 -0.048277961710457534 0.023968147969719501
 0.99854330197130048 -0.048337519134157347 0.023974117965156964
 0.99854016518953848 -0.04839914553543128 0.023980433997105779
 0.99853691333812267 -0.048462892311795874 0.023987095904876909
 0.99853354783056669 -0.048528726263207027 0.023994094777094129
 0.99853007044569797 -0.048596612979179193 0.024001408764099817
 0.99852648607374228 -0.048666447295626573 0.024009029902239323
 0.99852280139364091 -0.048738105992213267 0.024016913233956376
 0.99851902505010115 -0.048811409402493754 0.024025047869623915
 0.99851516869570545 -0.048886141657833067 0.024033373429401383
 0.99851124561437143 -0.048962039068606911 0.024041861655885708
 0.99850727216010893 -0.049038791880003721 0.024050453931847373
 0.99850326757788244 -0.049116038180023761 0.024059082064574563
 0.99849925282461804 -0.049193369169193576 0.024067707378620119
 0.99849525416421703 -0.049270312143471419 0.024076207193423352
 0.99849129778962797 -0.049346346752933271 0.024084565607950911
 0.9984874175874715 -0.049420878811932301 0.024092605856544196
 0.99848364616981433 -0.049493258771922261 0.024100325051096095
 0.99848002548250736 -0.049562758809221515 0.024107501979057963
 0.9984765960742541 -0.049628579061309464 0.024114129308897225
 0.99847340837615517 -0.049689843436896919 0.024119954911243559
 0.99847051238052353 -0.049745580628758231 0.024124947968494157
 0.99846796777341706 -0.049794743370894713 0.024128838825138676
 0.99846583532083366 -0.049836170178652703 0.024131552767989662
 0.99846418486945132 -0.049868614420319791 0.024132816428665937
 0.99846308921730076 -0.049890703200832179 0.024132492717722206
 0.998462629470796 -0.049900958716727138 0.024130310180672378
 0.99846289127937071 -0.049897773607395474 0.024126063231798001
 0.99846396834001849 -0.049879403579080918 0.024119473984681953
 0.99846595964311413 -0.049843979408201101 0.024110270647800823
 0.99846897250594502 -0.049789453382799574 0.024098159157173719
 0.99847311964278662 -0.049713662350586808 0.024082797314546378
 0.99847852228802758 -0.049614216431575264 0.024063874530041791
 0.99848530709810901 -0.049488620302277853 0.024040964410186019
 0.99849360858857472 -0.049334103210008348 0.024013743319826593
 0.99850356686377373 -0.049147792378183251 0.023981690196322396
 0.99851532833689494 -0.048926495874045899 0.023944458184510867
 0.99852904456115454 -0.048666911898325289 0.023901440418279404
 0.99854487135617331 -0.048365386798876454 0.023852237800223466
 0.99856296803816758 -0.048018130848876961 0.023796175587386306
 0.99858349551768122 -0.047620982454301145 0.023732772905339025
 0.99860661485941471 -0.047169606211939025 0.023661297699648753
 0.99863248526177506 -0.046659273403304544 0.02358117014412741
 0.99866126053140658 -0.046085048710385157 0.023491594223965503
 0.99869308783144295 -0.045441567338021426 0.023391884822774441
 0.99872810126345901 -0.044723224143710293 0.023281171982469564
 0.9987664202055041 -0.043923959511838188 0.023158662540932271
 0.99880814104620264 -0.043037427593734523 0.023023405611309219
 0.99885333498387485 -0.04205680472344013 0.022874447928758982
 0.99890203876355954 -0.040974845842993109 0.022710767537606747
 0.9989542426111373 -0.039783904508064391 0.022531358398953937
 0.99900988181564654 -0.038475963910145856 0.022335089788787253
 0.99906883669628366 -0.037042438346394584 0.022120517708406794
 0.99913092144431026 -0.035473779546663094 0.021886360558992315
 0.99919583142835222 -0.033760280153451165 0.021631780790412274
 0.9992631375210973 -0.031892339512466651 0.02135557706816443
 0.99933231732691152 -0.029859604796624219 0.021055249877748768
 0.99940274864624989 -0.027649198064518727 0.020728430830856411
 0.99947357430551309 -0.025247751904151676 0.020374623646790671
 0.999543660980168 -0.02264308876702853 0.019994007238458438
 0.99961164660193247 -0.019824409450843523 0.019584401131992765
 0.99967601896523883 -0.016777786448001087 0.019140610954635748
 0.99973499070970939 -0.013484351853682712 0.01865799039937684
 0.99978625053160375 -0.0099235217095680027 0.018137722151277631
 0.99982693874222039 -0.006080427021203789 0.017581836439915732
 0.99985381499167014 -0.0019407047475207388 0.016987710607556817
 0.99986316501953121 0.0025133246153012066 0.016350365026616489
 0.99985064859635453 0.0073011899776512807 0.015664390392205803
 0.99981117974483069 0.012448079605813279 0.014921466797114683
 0.99973855763713049 0.017984245911919969 0.014120314182394691
 0.99962553885038719 0.023935457756825079 0.013261822651677869
 0.99946375776022955 0.03032794782569943 0.012345545937014153
 0.99924363755967938 0.037186282330690663 0.011372475672532256
 0.99895445867649102 0.044532219985050844 0.010337836986615737
 0.99858376769254931 0.052394880332620325 0.0092323028483273575
 0.99811715948663049 0.060805932590651202 0.0080482606892205363
 0.99753787854335396 0.069801910246700544 0.0067730493233433249
 0.99682600644779051 0.079427668750786537 0.0053998431611447734
 0.99595886193119898 0.089724967167719549 0.0039211742453696234
 0.99490971482464496 0.10074332298952604 0.0023328567405020411
 0.99364849347551476 0.11252676083299208 0.00063206825152568164
 0.99214105042837564 0.12511889378014865 -0.0011825709751704329
 0.99034834275716865 0.13856566706679221 -0.0031170352042425358
 0.98822796488942988 0.1529010785929126 -0.0051719991898323877
 0.98572977145371365 0.16817464202684401 -0.007355776570306078
 0.98280247550933419 0.18440638341650203 -0.0096736698295192599
 0.97938380999320362 0.20164386849531737 -0.012128603441445581
 0.97541238070488367 0.21989413969392924 -0.01473956905400748
 0.97081722878598631 0.23918180631956856 -0.017492050137324116
 0.96552751424630701 0.25949866630183149 -0.020422081698934967
 0.95947426416369697 0.28081411287474528 -0.023506816413587539
 0.95258446129748253 0.30309312105410208 -0.02678439964360374
 0.94481135126281157 0.32621595451242247 -0.030243371943109804
 0.93611106054831295 0.35006570035455542 -0.033912943758795701
 0.92649478180243028 0.37440411579121535 -0.037801817039201963
 0.91602148216544066 0.39893256269872635 -0.041922006512760152
 0.90486611563127983 0.42317469210711012 -0.046265459496387044
 0.89336292440269016 0.44645661484760596 -0.050785592065955523
 0.88222766427641064 0.46757069136601681 -0.055244881761969483
 0.87318818303321621 0.48380339713648368 -0.058963293075849618
 0.65763677280780464 0.74987094778653407 -0.072162571438807679
 0.67355559474346594 0.73582562766702175 -0.069882089681186699
 0.69392764269940921 0.71685897869828075 -0.067658195049077524
 0.71568078183770301 0.69533324655295892 -0.065671110439038727
 0.73760182456879964 0.67220918297040844 -0.06386206012206222
 0.75918257997527427 0.64791034775334311 -0.062080524613025469
 0.78009515765517345 0.62275586532445104 -0.060221899728790426
 0.80017926591593713 0.59693027876185778 -0.058201243075408769
 0.81926857840567946 0.57066894090826303 -0.055999609996664715
 0.83731675805758998 0.544089076286008 -0.053551132034401282
 0.85422650606023409 0.51740120162690928 -0.050922224020120067
 0.86998661240284769 0.49072808594633194 -0.048054551327284964
 0.88457623881139125 0.46421430081452231 -0.045055084614023369
 0.89799311433397955 0.43801108325644134 -0.041888632745404157
 0.91027189364631422 0.41220323845908508 -0.038646731315806294
 0.92142839236992025 0.38693772783473673 -0.03533995631965748
 0.93152447825924123 0.36226648885541674 -0.032017767820645485
 0.94059876577515056 0.33830351551653204 -0.028717472232403691
 0.94871998270758051 0.31509025314972511 -0.025466188984029962
 0.95594653934181972 0.29269247294460815 -0.022300901371213301
 0.96234650930913435 0.27114392834691486 -0.019239702209942134
 0.96798697202836492 0.25047016713343295 -0.016306972726649101
 0.97293333491021516 0.23069041654730432 -0.013515085412916189
 0.97725232400630724 0.21180093987714593 -0.010874607644835744
 0.98100439733562883 0.19380430959566122 -0.0083822425584533181
 0.98424820813992819 0.17668905059345402 -0.0060369010033710507
 0.98703708147763947 0.16044681395339286 -0.0038235690537774276
 0.98941940319413746 0.14507322979833842 -0.0017327950933170217
 0.99144057602744495 0.1305585085273048 0.00024506630558016463
 0.99314150340427709 0.11689939708369092 0.0021178237324917053
 0.9945609938025517 0.1040835606355841 0.0038784032667622858
 0.99573576476754655 0.092085650863163782 0.0055244608693388155
 0.99669913733899462 0.080877111670466975 0.007051413726827117
 0.99748193057490564 0.070414909863543387 0.0084580521083883892
 0.9981109546447301 0.060657344435546406 0.0097574988707791223
 0.99860908563638218 0.051572494336887688 0.010962295030713328
 0.99899645309979579 0.043129129263542829 0.012081593561953772
 0.99929056053073173 0.035300796426735212 0.013123620148962059
 0.99950698000248095 0.028060458605588211 0.014085722883980774
 0.99965965432449577 0.021368876606330873 0.014964846421303432
 0.99976036538750979 0.015184681034312912 0.015768235859443029
 0.9998188377264724 0.0094756194728068139 0.016507706166888944
 0.99984335969722371 0.0042157583437761204 0.017189632077362293
 0.99984109794157705 -0.00062155552922593075 0.017815513905183419
 0.99981812180421192 -0.0050664694337548251 0.018386250280436115
 0.99977939488794398 -0.0091488761867460043 0.01890660260375086
 0.99972899303813434 -0.012894516439820152 0.019382257988718128
 0.99967031727801126 -0.016326186792148679 0.019816971971224073
 0.99960616624866194 -0.019466777559727571 0.020212792214148633
 0.99953876791985496 -0.022338640268130205 0.020572714362217862
 0.99946989644842499 -0.024962407318089706 0.020899863977079342
 0.99940096249759514 -0.02735686973536126 0.021197118605197685
 0.99933306360244578 -0.029539944034397365 0.021466711378201345
 0.99926703200590705 -0.031528289089032976 0.021710958827833089
 0.99920347875511528 -0.033337611855472474 0.021931978466384845
 0.99914284547966858 -0.034982271736862684 0.022131764297482908
 0.99908542342381057 -0.036475823463629653 0.022312126853249278
 0.9990313933566457 -0.03783069938721223 0.022474725176378631
 0.99898083822808836 -0.03905853455757826 0.022621134616114279