# OOMMF OVF 2.0
#
# Segment count: 1
#
# Begin: Segment
# Begin: Header
#
# Title: Oxs_TimeDriver::Spin
# Desc: Oxs vector field output
# Desc:  MIF source file: /home/debasis/Downloads/STD_Prob_4/stdprob4.mif
# Desc:  Iteration: 100, State id: 736
# Desc:  Stage: 0, Stage iteration: 100
# Desc:  Stage simulation time: 4.76509e-11 s
# Desc:  Total simulation time: 4.76509e-11 s
# meshunit: m
# meshtype: rectangular
# xbase: 1.25e-09
# ybase: 1.25e-09
# zbase: 1.5e-09
# xnodes: 200
# ynodes: 50
# znodes: 1
# xstepsize: 2.5000000000000001e-09
# ystepsize: 2.5000000000000001e-09
# zstepsize: 3e-09
# xmin: 0
# ymin: 0
# zmin: 0
# xmax: 4.9999999999999998e-07
# ymax: 1.2499999999999999e-07
# zmax: 3e-09
# valuedim: 3
# valuelabels: Spin_x Spin_y Spin_z
# valueunits: {} {} {}
#
# End: Header
#
# Begin: Data Text
 0.49458807876590799 0.86259889763847741 -0.10632861390769401
 0.50762463054887763 0.85509964466986121 -0.1054600974093655
 0.52525594670865305 0.84443726902830385 -0.10503280022553332
 0.54566896846268731 0.83137925978494653 -0.10513754446581514
 0.56800181265919714 0.81622283013230079 -0.105613599440051
 0.59171656693817254 0.79911356729135707 -0.10624975756106472
 0.61641707239033294 0.78013524663809375 -0.10685967349122784
 0.64178187615313431 0.75934706541109276 -0.10727561555602663
 0.66752608512169509 0.73680265223632968 -0.10738145714979788
 0.69339001008295176 0.71256288187769545 -0.10707209387752381
 0.71912965489640324 0.68669919380538236 -0.10628620171789932
 0.74451212907151287 0.65930610230869735 -0.10496262727236107
 0.76931887857206704 0.63049464681125522 -0.10307746317681495
 0.79334003524365682 0.60040902523995587 -0.10060114755806536
 0.81638634607393534 0.56920966899176784 -0.097538129315313846
 0.83827967322329311 0.53709596106417878 -0.093888860197548399
 0.85887297097324078 0.50427574352672278 -0.089683857087938038
 0.87803598970331209 0.47099403898244097 -0.084955376691131831
 0.89567845641409338 0.43749124706951115 -0.079759083828934776
 0.91173350369346329 0.40403292280440994 -0.074158044290333916
 0.92617736714834098 0.37086444682522779 -0.068227902380074298
 0.93901259173229201 0.33823743690175556 -0.062054724609290138
 0.95028011350786168 0.30637007729165461 -0.055723259163396703
 0.96004435320888448 0.27546600496289941 -0.049328693288130381
 0.96839638283800966 0.24569023639025164 -0.042950593113032745
 0.97544288970978843 0.21717731299031962 -0.036676745178960135
 0.9813029507753841 0.19002628002130356 -0.030570111232859225
 0.98610113192557358 0.16430043609829478 -0.024696645784654202
 0.98996234763388302 0.14003507412598035 -0.019097860658779303
 0.99300813592200154 0.11723524019727011 -0.013810881528713369
 0.99535293593313556 0.095885785490357311 -0.0088571479712482633
 0.99710246557557569 0.075951565002557189 -0.0042465181937818234
 0.99835208559586064 0.0573856509866719 1.5723597358542617e-05
 0.99918676813747265 0.040128436061438857 0.0039384004691731785
 0.99968077432210345 0.024117488391792809 0.0075296882028210868
 0.99989851908861327 0.009282152024682952 0.010807089256078288
 0.99989503693835691 -0.0044458274815870205 0.013789478744535393
 0.9997170374801394 -0.017136567917226269 0.016497969934268403
 0.99940376163749745 -0.028857603906826099 0.018956790909249163
 0.99898807131288359 -0.039671446822205511 0.021189848550615589
 0.99849733860439993 -0.049637381383210499 0.023220576421530109
 0.99795436909494351 -0.058808955946424588 0.025071575634668417
 0.99737823162437234 -0.067234201325325232 0.026762385057868539
 0.99678483650394245 -0.074957832487261553 0.0283074736530942
 0.99618721929342446 -0.082023259319752725 0.029718833203868891
 0.99559615148900815 -0.088470763339652217 0.031003663886308822
 0.99501984085112449 -0.094344845200767469 0.032164677779294298
 0.99446418943609716 -0.099690696738862508 0.033207543012491542
 0.99393331969716969 -0.10455292189854437 0.034135648788923202
 0.99342919546580288 -0.10897932628670226 0.034956258928325996
 0.99295269574384148 -0.11301202747920369 0.035682287764069433
 0.99250411489051993 -0.11668753753379593 0.036326306028616695
 0.99208325462283498 -0.12003741834723244 0.036903036372293599
 0.99169026292146023 -0.12308438536029234 0.037425345786564236
 0.99132536325635101 -0.12584729208108797 0.037900966221470954
 0.99098877140982655 -0.12834271116177312 0.03833279837539063
 0.99068010426209918 -0.13058999072999289 0.038719314823183977
 0.99039825582270047 -0.13261084546721327 0.039059679054285874
 0.99014156116464969 -0.13442849785991495 0.039353116999257906
 0.98990755359032301 -0.13606850247407487 0.039603004674956525
 0.98969391050411037 -0.13755153146149987 0.039818836041223493
 0.98949912430532594 -0.13889119351086063 0.040008991041037653
 0.98932204794882306 -0.1400979887517218 0.040180082006747143
 0.9891621449005642 -0.1411782011973117 0.040335674066593254
 0.98901891042062473 -0.14213894408021749 0.040473638410218025
 0.98889120312535816 -0.1429914720563159 0.040590975603567843
 0.98877744644611953 -0.1437490351334966 0.040686315852875216
 0.98867563269463821 -0.14442635982261318 0.040761745598610177
 0.98858407217850974 -0.14503416656284215 0.040824291351801281
 0.98850201182986497 -0.14557690521494129 0.040879545941087406
 0.98842909874267937 -0.14605728385402467 0.040929043378991538
 0.98836496715289202 -0.14647866944138649 0.04097183305081379
 0.98830903620697053 -0.14684637641874324 0.041004764166299307
 0.9882600153015848 -0.14716990290647669 0.041026355365908894
 0.98821656420043191 -0.14745754085286428 0.041040174043484798
 0.98817796307276973 -0.14771312073348178 0.041050545191602179
 0.98814396547451233 -0.14793789240688263 0.041059511523099175
 0.98811445277626897 -0.14813291506794643 0.041066624990701371
 0.9880891408511725 -0.14830091277502011 0.041069319474369266
 0.98806717371121755 -0.14844806475594477 0.041066194181364014
 0.9880476101588197 -0.14857988332246033 0.041060179387446716
 0.98803016166246305 -0.14869734500977605 0.04105483202122083
 0.98801496875136674 -0.14879961183970289 0.041049933490683206
 0.98800184033281158 -0.14888864972177229 0.041043068635340726
 0.98799017304891323 -0.1489685694132851 0.041033928470690942
 0.9879794910852393 -0.14904201596335614 0.041024415565979321
 0.98796967928298218 -0.14910939393287204 0.041015868373753546
 0.98796071070080993 -0.14917104284194546 0.041007732063566317
 0.98795235554873295 -0.14922867930935466 0.040999322400448332
 0.98794432178157043 -0.1492841435425166 0.040990993478204778
 0.98793643382321839 -0.14933839168475196 0.040983502701368302
 0.9879286240754207 -0.14939185008852882 0.040976930821777981
 0.98792077728502137 -0.14944532957655265 0.040971102942375416
 0.98791276134004236 -0.1494996985165003 0.040966036236961156
 0.98790446111836949 -0.149555651118468 0.040961969202602852
 0.98789581571660623 -0.14961357139969034 0.040958961689123385
 0.98788675353845479 -0.14967392976342361 0.040957013226379881
 0.9878772214947007 -0.14973707686536483 0.040956111433168282
 0.98786716276283182 -0.14980337311050046 0.040956295482244207
 0.98785655248447068 -0.14987297902035987 0.040957561854424299
 0.98784536110483001 -0.14994609300954312 0.040959879575521066
 0.98783358226715201 -0.15002275937288717 0.040963220276128802
 0.98782120766553838 -0.15010304263020707 0.04096752713249234
 0.98780824936514655 -0.15018686963346561 0.040972755287689989
 0.98779472500697385 -0.15027414902947733 0.040978791854606525
 0.9877806687768208 -0.15036466566540718 0.040985579295002274
 0.98776611960504757 -0.15045818761860383 0.040993008414996604
 0.98775112221774175 -0.15055444099628978 0.041000986011150382
 0.98773574724554392 -0.1506530246289636 0.041009264604869915
 0.98772008450791238 -0.15075337856934745 0.041017721896878093
 0.98770422588258455 -0.15085491410502808 0.041026297225669285
 0.98768823527407135 -0.15095723640460618 0.041034895860409162
 0.98767222989982262 -0.15105972006187413 0.04104299281899812
 0.98765639837314068 -0.15116124532610734 0.04105017252164278
 0.98764093434901035 -0.15126051641784036 0.041056558199904732
 0.98762590621759327 -0.15135701246143901 0.04106244204410562
 0.9876114018398503 -0.15145036988797766 0.041067072171273374
 0.987597715289939 -0.15153905904471113 0.04106904354786111
 0.98758528332432283 -0.15162029769957136 0.041068156602291843
 0.98757429805097963 -0.15169251282831089 0.041065647212090606
 0.98756473710928394 -0.15175583076273755 0.041061634743178706
 0.98755681432228415 -0.15180948078227652 0.04105386742119798
 0.98755113744045842 -0.15184999826623174 0.041040577074430755
 0.98754824921696249 -0.15187376794903015 0.041022116930705781
 0.98754844511756112 -0.15187861775011927 0.040999439218123525
 0.98755193534591879 -0.15186315994671395 0.040972620681728078
 0.98755892246560761 -0.15182628845321774 0.04094084504609382
 0.98756983931367848 -0.15176591724791449 0.040901330538925439
 0.98758555762666744 -0.15167699084091255 0.040851643989810144
 0.98760693350162521 -0.15155377341345602 0.040792139728865036
 0.98763443854832544 -0.15139270718026557 0.040724243467061348
 0.98766842693507617 -0.15119125724541777 0.040648273864236112
 0.98770918250980955 -0.15094760732715209 0.040563414895834551
 0.98775724934733333 -0.15065887845322143 0.040466266259777318
 0.98781367669871989 -0.15031883870603691 0.040353275666608401
 0.98787958334545589 -0.14992002143490885 0.040223326343863754
 0.98795595305461514 -0.14945557118399008 0.040075766568020019
 0.9880437944943502 -0.14891790025467427 0.039911391167748486
 0.9881435784076531 -0.14830245112655921 0.039732246872951141
 0.98825561822718788 -0.14760638830628925 0.039537161931173896
 0.98838058212787427 -0.14682502494834981 0.03932221918306579
 0.98851952959503964 -0.14595092958271999 0.039082806490087829
 0.98867385294088428 -0.14497386637104695 0.038814824235807614
 0.98884494769906983 -0.14388238513888599 0.038516602352351381
 0.98903408747209887 -0.14266516418141645 0.038186709040216205
 0.98924250221631782 -0.14130969038001664 0.037826488252312399
 0.98947055566197351 -0.13980829280619639 0.037438759869983865
 0.98971852672096039 -0.13815447692716812 0.037021323183705455
 0.98998702613216716 -0.13633864452944863 0.03657132890476613
 0.99027637359606469 -0.13435225800149744 0.036085657363092799
 0.99058724776904172 -0.1321840130125336 0.03555687361478143
 0.99092076220841163 -0.12981720821194229 0.034979071976793868
 0.99127778160530011 -0.12723406983729812 0.034348961677354087
 0.99165883587954917 -0.12441658862468248 0.033664011897185264
 0.99206424599511966 -0.12134516541179464 0.032922373081522988
 0.99249372281382797 -0.11800066163508897 0.032125597719413632
 0.99294605322425089 -0.11436800734677978 0.031274498907420775
 0.99341986771423696 -0.11043035834045536 0.030366138829736204
 0.99391321514810282 -0.10617015687067285 0.029400995629704489
 0.9944232984218434 -0.10157361050994175 0.02837437583095305
 0.99494754426414722 -0.096618920052813459 0.027279451067988552
 0.99548231031794943 -0.09128566904507833 0.026113147474602572
 0.99602339782540972 -0.085551486534072296 0.024866325344452791
 0.99656605821078925 -0.079386935935906691 0.02353308362535509
 0.99710400284009582 -0.072765473890521348 0.022108670917682916
 0.99762998875942266 -0.06565570127510599 0.020584810369506566
 0.99813519742723211 -0.058023693210467929 0.018957285752922669
 0.99860887503160822 -0.049837557803557288 0.017220120216858054
 0.99903856702054095 -0.04105916339659358 0.015365113299806665
 0.9994092878189188 -0.031651985960771609 0.013387576555172866
 0.99970360958626681 -0.021575622522858127 0.01127765458507088
 0.99990106480335283 -0.010787609857793848 0.0090270747574842051
 0.99997774411945817 0.00075759026431806466 0.0066285234216153848
 0.99990583185823201 0.013106167078934659 0.0040688819589893236
 0.99965290919807359 0.026310747632216087 0.0013437599718234079
 0.99918154055413233 0.040420429233913778 -0.001561382854032982
 0.99844833070688432 0.055491499492633559 -0.0046502035111620453
 0.99740352669093413 0.071576824994792246 -0.0079349271043904768
 0.99599021744957339 0.088730266002151947 -0.011420448324779984
 0.99414330100809967 0.10700763792459539 -0.015114975571187666
 0.99178987768723625 0.12645503885557074 -0.019025290146887495
 0.98884655210924055 0.14712674613385951 -0.023156358818477
 0.98522201288916089 0.16905748891242114 -0.027516372603541166
 0.98081232903896942 0.19229204526750132 -0.032108324963999568
 0.97550589168790114 0.21684921016428843 -0.036941512331213781
 0.96917758260880982 0.24275369023374177 -0.042017368390279204
 0.9616956408357803 0.26999976506368778 -0.047345762883401005
 0.95291698331119468 0.29857660694875826 -0.052926672860281014
 0.94269520536955564 0.32843847569444767 -0.058770038767719204
 0.93088080694485842 0.35951656323230391 -0.064874987655662616
 0.91733110163964515 0.39169740046298274 -0.071251641631171522
 0.90191948944537847 0.42482072223684664 -0.077901145798708812
 0.8845521763857086 0.45866134141134873 -0.084836437608191165
 0.86519375740382221 0.49291357045536444 -0.092065054230150517
 0.84390181596191671 0.52716997876487792 -0.09960691996652396
 0.82088841145708313 0.56088485883849992 -0.10747274566690149
 0.79661078271202646 0.59332443771226417 -0.11566059173442866
 0.77194952402088812 0.62345486368341774 -0.12408853820323373
 0.74858844671716895 0.64967638660349936 -0.13242329905041886
 0.73019348422664954 0.66885767793174222 -0.13945207873927079
 0.4745719768593088 0.87418697726638706 -0.10285216360244924
 0.48899845987615798 0.86636574560652968 -0.10144407857724951
 0.50780745620456047 0.85556118955441329 -0.10073052343401487
 0.52901976235684511 0.84261158349552634 -0.10071648521999117
 0.55192949512828338 0.82773174167091434 -0.10116321583398181
 0.57611918498077463 0.81099684540711436 -0.10183713191560877
 0.60127139956270104 0.79244208095552982 -0.10250976733355993
 0.62710334150403468 0.77209089609475778 -0.10303905687683627
 0.65335922448599071 0.74997161256259781 -0.10326811768073237
 0.67979333663041008 0.72611700976790594 -0.10312665804053191
 0.70616532003594867 0.70058683540992428 -0.10251159363132482
 0.73224844305893566 0.6734467165349679 -0.1013989034755077
 0.75781191442969997 0.64480783111896822 -0.099719422762295895
 0.78264862874576291 0.61478340879582161 -0.097480686249978063
 0.80654380402006354 0.58354908653940729 -0.094644364839480577
 0.82932320145104232 0.55126956352565826 -0.091240867297632672
 0.85080453892872698 0.51818525387707681 -0.087267858932288098
 0.87086254040271871 0.48450651251851595 -0.082776053605305586
 0.88937053032899271 0.45051833163933064 -0.077802908938165924
 0.90626647966757701 0.41645768633717922 -0.072415905170210793
 0.92149607918156218 0.38261926491705933 -0.066689385717198402
 0.93506673727061762 0.3492358545290713 -0.060700203965317306
 0.94699962220273992 0.31656960301561665 -0.054547245525350591
 0.95736326105073211 0.28481960897864178 -0.048305038366216246
 0.96624132832408494 0.25417922120737818 -0.042078723185458994
 0.97374386495173826 0.22479309082814272 -0.035929817488839159
 0.97999205642976461 0.1967705868312368 -0.029948380467927471
 0.98511392564640143 0.17019381923547583 -0.024178862495541527
 0.98924117775633125 0.14509622323211621 -0.018680959157460712
 0.99249976991890121 0.12150076651863238 -0.013482227053169548
 0.99501158107396159 0.099387356934161897 -0.0086085312531690838
 0.99688746335901435 0.07873242715936031 -0.0040731205759217968
 0.99822926176562543 0.059483824359417355 0.0001248776694283441
 0.99912684775830363 0.041589152656373994 0.0039855325717464245
 0.99965963322836937 0.024980281116805718 0.0075235130788438836
 0.99989621220845337 0.0095899995527396961 0.010751591499215273
 0.99989546932804452 -0.004653080817420158 0.013689384798314431
 0.99970735698264068 -0.017821697946247859 0.016358101268049992
 0.99937398727442939 -0.029981696043879742 0.018781146438409314
 0.99893055120226104 -0.041201738949117737 0.020980242665798895
 0.9984064134932702 -0.051540847937017867 0.022982047111567993
 0.99782621158139484 -0.061053737990391425 0.024805091383064401
 0.99721020512626513 -0.069793617453462437 0.026469940589127827
 0.99657557534114038 -0.07780446415614832 0.027992641726882247
 0.99593640943339989 -0.085131464595544368 0.029382003007365643
 0.99530395265424365 -0.091819492915197351 0.030646738026010322
 0.99468720891203621 -0.097911565338444487 0.031791222055132504
 0.99409257476956037 -0.10345512787967379 0.032817515192751494
 0.9935241657744166 -0.10849856045408671 0.033731208126014149
 0.99298434262731372 -0.11308870561697161 0.034540410519847776
 0.99247424549351759 -0.11726872797866461 0.035255034680723586
 0.99199381509600293 -0.12107970585830816 0.035888377513381017
 0.99154310397789891 -0.12455177890838653 0.03645719852964327
 0.99112244482549017 -0.12770834069414139 0.036971327813486644
 0.99073178605658463 -0.1305713454011905 0.037438641231389222
 0.99037127260845603 -0.13315793325431385 0.03786432626294816
 0.99004086462867447 -0.13548564481453715 0.038245606473108144
 0.98973911767540035 -0.13757930336431012 0.038579971862501262
 0.98946410312320332 -0.13946325531620041 0.038868869898714561
 0.98921343910634207 -0.14116205888114336 0.03911578995546576
 0.98898478910572785 -0.14269682280614704 0.039328153764577066
 0.98877623096653988 -0.1440838835691233 0.039514548855369307
 0.98858657157252805 -0.14533351292102978 0.039683252494069558
 0.98841545303797451 -0.14645099133686298 0.039837160192282929
 0.98826226205650158 -0.14744451996419244 0.03997267726204138
 0.98812555236453814 -0.1483269207030749 0.040087621019715067
 0.98800366201586165 -0.1491113466451563 0.040181714061435135
 0.98789468698506588 -0.14981152152025815 0.040256619908582848
 0.98779679005827148 -0.15043919734143796 0.040318103301605887
 0.98770907402421659 -0.1509996026975568 0.0403720828717654
 0.98763106565624659 -0.1514960516920284 0.040420594657090074
 0.98756248990962536 -0.15193115707442076 0.040462971140644621
 0.98750268729155366 -0.15231071749338454 0.040495529736140887
 0.98745032040864755 -0.1526442126707982 0.040516775081089411
 0.9874038874718013 -0.1529407284039421 0.040530193693662647
 0.98736268386607406 -0.1532038167916423 0.040540362964039872
 0.98732640172226915 -0.15343514855675169 0.040549126371896692
 0.98729493921111144 -0.15363561454871408 0.040556145654719059
 0.98726794320952427 -0.15380830660818884 0.040558761435195115
 0.9872445372994274 -0.15395928185933846 0.04055567903261395
 0.98722371291082078 -0.15409434673922437 0.040549635874878476
 0.98720516516152979 -0.15421452615449144 0.040544318977415172
 0.98718902663103525 -0.15431908611074854 0.040539429710007395
 0.98717508604292581 -0.15441001190172343 0.040532674728566358
 0.98716271552400836 -0.15449146337933931 0.040523583530778902
 0.98715139661878737 -0.15456623824813978 0.040514172179583863
 0.98714102029650086 -0.15463472208822898 0.04050566346425389
 0.98713153085162719 -0.1546973898892211 0.04049763400478356
 0.98712270615092834 -0.15475587913235503 0.040489268642935679
 0.98711421141719169 -0.15481220646274099 0.040481036898201192
 0.98710588640587771 -0.1548672308925218 0.040473569382362483
 0.98709762725435268 -0.15492156157513801 0.040467073380070204
 0.98708934063812304 -0.15497587157401554 0.040461250950383332
 0.98708085347742591 -0.15503122835177302 0.0404562347978248
 0.98707207664772711 -0.15508816502385375 0.040452151634710762
 0.98706290945760966 -0.15514727936632011 0.040449159179244278
 0.98705331040680344 -0.15520885416540331 0.040447175471634983
 0.98704318708506023 -0.1552734609205674 0.040446250292404048
 0.98703251358349686 -0.15534126082539362 0.04044638196700804
 0.9870212297649007 -0.15541262794831745 0.04044758419956497
 0.98700933451330608 -0.15548757004807012 0.040449834908775011
 0.98699679385760519 -0.15556631312005714 0.040453073270651528
 0.98698362152333674 -0.15564876391518323 0.040457300161459028
 0.98696981259656302 -0.15573497888951379 0.040462394558259361
 0.98695539784953146 -0.15582476070557272 0.040468340795295932
 0.98694040776030612 -0.15591795438105149 0.040474967962300393
 0.98692488464897044 -0.15601427942741922 0.040482300766627101
 0.98690888062846061 -0.15611345985955027 0.040490109747435124
 0.98689246067503122 -0.15621510627839957 0.040498291732002922
 0.98687573672707185 -0.15631857892465936 0.040506569126179365
 0.98685878935568172 -0.15642333776532424 0.040515049966568274
 0.98684170753098399 -0.15652887944553776 0.040523501537455667
 0.9868245896111052 -0.1566346840520042 0.040531532055952023
 0.98680766559498834 -0.1567394488947266 0.040538577714900145
 0.98679111756912241 -0.15684196527019678 0.040544891378136695
 0.98677505045683933 -0.15694151775988138 0.040550706518223824
 0.98675952466729744 -0.15703790570125928 0.040555352930673881
 0.98674487514087661 -0.15712940650248736 0.040557379049834752
 0.98673154026988263 -0.15721334931873074 0.040556506661841726
 0.98671977812010381 -0.15728779526853673 0.040554024783933933
 0.98670954462539584 -0.15735298482030194 0.040550125934276135
 0.98670105660074736 -0.15740809968508954 0.040542755906545248
 0.98669492979459816 -0.15744984713523993 0.040529756410848446
 0.98669180135233281 -0.15747412209934761 0.040511603438131677
 0.98669198691670656 -0.15747871338953079 0.040489230463664573
 0.9866956974374006 -0.15746220092305524 0.040463019400299165
 0.98670316174808259 -0.15742344377412185 0.040431793759775389
 0.98671483850988473 -0.15736015822447988 0.040393168580576094
 0.98673162972929007 -0.15726732258068338 0.04034451809208655
 0.98675441836478139 -0.15713923017306131 0.040286228145604848
 0.9867837886449794 -0.15697187257529635 0.040219220376153622
 0.98682017528211929 -0.15676223513315884 0.040144031838163279
 0.98686394095802232 -0.1565078751770215 0.040060542237654928
 0.98691541662418214 -0.15620715519161535 0.039966049297618544
 0.98697568402615021 -0.15585418547856664 0.039855639625096133
 0.98704614261831902 -0.15544025999176203 0.039727042628296828
 0.98712806642753437 -0.15495649628749628 0.039581115817275171
 0.98722219031282143 -0.15439694780918897 0.039419911988257172
 0.98732898244003153 -0.15375753755525373 0.039244108842944131
 0.98744901673801999 -0.15303410639502549 0.039051269159829219
 0.98758317601503021 -0.1522200737775434 0.038839665179105663
 0.98773208669360302 -0.15131071313069411 0.038605608501636489
 0.98789729586369268 -0.15029573683401767 0.038342200181045685
 0.98808073538379715 -0.14916055229819325 0.038047207538961333
 0.98828366251787703 -0.1478931859672919 0.037722777531552724
 0.9885069151233703 -0.14648434983320538 0.037368623298445147
 0.98875147471987956 -0.14492283430032787 0.036985042079511268
 0.9890177359901875 -0.14320023279013983 0.036573367710582942
 0.98930575271093091 -0.14131036532943411 0.036131818436391717
 0.98961608139353252 -0.13924397892902884 0.035652850928384452
 0.98994988884831259 -0.13698541267118641 0.035131386031842612
 0.99030775139678273 -0.13452096169673147 0.034563975286914288
 0.99069060241780094 -0.13183333226866983 0.033942639614403199
 0.99109970562351057 -0.12889829573928069 0.033265640960299284
 0.99153477683117197 -0.1256989862084662 0.032535383823182676
 0.99199553472094681 -0.12221662908782353 0.031748301814618615
 0.99248125308814861 -0.11843038788580061 0.030906398913448947
 0.99298990284247213 -0.11432573213200527 0.030011328284149253
 0.99351930323988136 -0.10988654146864348 0.029057565173298487
 0.99406704893460573 -0.10509173367192697 0.028043354583092615
 0.99462953428914302 -0.099925036739288639 0.026964357074003898
 0.99520317157305971 -0.09436316045929824 0.025811649289724677
 0.99578358157106639 -0.088379108972424292 0.024580312665625503
 0.9963650532757854 -0.081947840214883813 0.023264395432880263
 0.99694121286866466 -0.075037293123825941 0.021854581318457068
 0.99750407159559451 -0.06761356271119584 0.020347807933780916
 0.99804373050871342 -0.059645834452851355 0.01873730035714621
 0.99854894822046436 -0.051093036334664207 0.017014689121731128
 0.99900560473668076 -0.04192149232905714 0.015178609475297851
 0.99939766685265019 -0.032088041755800052 0.013215939836331405
 0.99970583220898201 -0.021552543993363635 0.011123708678361837
 0.99990774291913453 -0.010268352762558728 0.0088919391532810785
 0.99997718199222529 0.0018089499598701465 0.0065087014780758684
 0.99988356373420162 0.014733660156252536 0.0039721823464062911
 0.99959148935988174 0.028552788301654652 0.0012620140627098392
 0.99905970496566698 0.043325406536041659 -0.0016171154570495238
 0.99824080133321702 0.059104323540840262 -0.0046884424275358385
 0.99708037017761753 0.075944765181746698 -0.007945316101619665
 0.9955155877905173 0.093907330300035882 -0.011407356486973767
 0.99347660227852197 0.11303582662857363 -0.015071251557802772
 0.99088176731044464 0.13339518130020558 -0.01894858352529832
 0.98764353617427025 0.15501393148559267 -0.023041842343073451
 0.98365900471302947 0.17795146805066214 -0.027353929618730947
 0.97882084932694546 0.20221905244730018 -0.031893569104025868
 0.97300423119222201 0.22785782238253918 -0.036654861357260461
 0.96608157326841093 0.25485582299112852 -0.041652170156506678
 0.95790881519941651 0.28322030575446699 -0.046871741717122085
 0.9483414730672185 0.31290556771089217 -0.05233121588710081
 0.93722609923837685 0.34386329011332661 -0.058011004291036075
 0.92441424375066727 0.375993754291782 -0.063929669829063049
 0.90976525939535757 0.40916728965118276 -0.070066410474655449
 0.89316001743133289 0.44319545930340132 -0.076439310010677275
 0.87451890787501052 0.47783060255708515 -0.083033698153412841
 0.85382230971583584 0.51274785781623933 -0.089872675137512889
 0.83115451505793847 0.54752376639275568 -0.096953067686867719
 0.80674711287093437 0.58161822442101374 -0.10430405982395498
 0.78108242999372568 0.61431664593985502 -0.11191646919155133
 0.75505561924599307 0.64463605211119257 -0.11973041453008319
 0.73041217496294353 0.67101157283221302 -0.12744223707681121
 0.71121780891288533 0.69010106326032816 -0.13390201929813947
 0.45009588574286535 0.88745475085646741 -0.099185476858414501
 0.46496594117573897 0.87994546221998771 -0.097481572951052614
 0.48458473315480588 0.86940381181327775 -0.096512426131707421
 0.50660327369034164 0.85677832785090435 -0.096353619606307436
 0.53023103240534764 0.84231328803018213 -0.096764544550897919
 0.55508338774133359 0.82606648537226812 -0.097450471514060111
 0.58087913302455418 0.80804202378015444 -0.098221793009059283
 0.60738319932311569 0.78823405590525664 -0.098857080126641086
 0.63436188855035935 0.76663628610273149 -0.099266304380853876
 0.66158589361417042 0.74326590047166174 -0.099297062226377616
 0.68883057787336621 0.71814152479080706 -0.098920095823745113
 0.71585886650430774 0.69133021124806937 -0.098023580136963426
 0.74245219406490714 0.66289497933897856 -0.096617730750523462
 0.7683717879411065 0.63297051599159981 -0.09462093521792761
 0.79341783268022659 0.60167420059270127 -0.092066818811915599
 0.81736373197229772 0.56921983379280716 -0.08891181290023778
 0.840047578071909 0.53577999577404645 -0.085204827937639352
 0.8612819423004151 0.50163792307367738 -0.080949428667234674
 0.88096076052282968 0.4670126198864471 -0.076205979331248022
 0.89896360115861351 0.43222599805170814 -0.07102908136912886
 0.91525511124664527 0.39751701081284058 -0.065485169705169904
 0.92979733561360201 0.36320275283310666 -0.059671391975552095
 0.94262680033357027 0.32950884189806734 -0.053652944037491893
 0.9537866011176438 0.29669868432073782 -0.047550081501462033
 0.96337014558418643 0.26495752103158743 -0.041418288785261895
 0.97148166608923359 0.2344612142715132 -0.035373880969076406
 0.97824753498743067 0.20533831916755002 -0.029460736115396135
 0.98380308501782099 0.17767021452212156 -0.023765201052830139
 0.98828366737840612 0.15152479728735863 -0.018320169216266318
 0.99182704419904366 0.12690788768842842 -0.013172032411500294
 0.99456002855763814 0.10383044631133419 -0.0083419430721701233
 0.99660412473931426 0.082252437334929332 -0.0038412374371881225
 0.99806737986265459 0.062140180797714051 0.00032122347848042286
 0.99904777044349447 0.043431300580982789 0.0041562605460958354
 0.99963086741886176 0.026064287546055418 0.0076669301634129643
 0.99989118392195342 0.0099679011886024283 0.010874799356697971
 0.99989272295455278 -0.0049301224750549809 0.0137926239313211
 0.99968982912510684 -0.018703170277244455 0.016444967783343825
 0.99932838399183266 -0.031422281284146376 0.018852617515145838
 0.99884682423277416 -0.043155296411285834 0.021039061570225937
 0.99827720398818587 -0.053966163255338442 0.023027748935321772
 0.99764633706838968 -0.063912292529994197 0.024839585294156006
 0.99697645959512249 -0.073048063088729839 0.026493763269120348
 0.99628620993819517 -0.081421573707593772 0.028005628397974963
 0.99559084435677203 -0.089080643452499886 0.029385533771882237
 0.99490277208948452 -0.096070557142475935 0.030641836416793564
 0.99423161369037749 -0.10243871456885681 0.031777477812251938
 0.99358429473850551 -0.10823384229231697 0.032797631494187372
 0.99296555748652993 -0.11350472772014793 0.033705762573186651
 0.9923778789868003 -0.11830153554439185 0.034509302883406
 0.99182236589564254 -0.12267007219460091 0.03521999285834318
 0.99129945694211152 -0.12664966212819698 0.035850380041059213
 0.99080895227017196 -0.13027508606158994 0.036414585716846089
 0.99035107837131764 -0.13357118049996977 0.036925347779171336
 0.98992595560060548 -0.13655977973082553 0.037390225836395154
 0.98953382610903262 -0.13925880919045747 0.037812577918922986
 0.98917413398269061 -0.14168980481562288 0.038190730169829962
 0.98884563733410824 -0.14387561627934795 0.038524181568712637
 0.98854640298882379 -0.14584117389561338 0.038811868476121544
 0.98827369041346103 -0.1476132889454389 0.039056750546725381
 0.98802478839509478 -0.14921471799168068 0.039268122586793554
 0.98779801848712168 -0.15065998678078971 0.039454316064635689
 0.98759200139958581 -0.15196110697147577 0.039621468165177476
 0.98740598275286695 -0.15312577412808656 0.039773389615664512