# OOMMF OVF 2.0
#
# Segment count: 1
#
# Begin: Segment
# Begin: Header
#
# Title: Oxs_TimeDriver::Spin
# Desc: Oxs vector field output
# Desc:  MIF source file: /home/debasis/Downloads/STD_Prob_4/stdprob4.mif
# Desc:  Iteration: 150, State id: 1086
# Desc:  Stage: 0, Stage iteration: 150
# Desc:  Stage simulation time: 7.08845e-11 s
# Desc:  Total simulation time: 7.08845e-11 s
# meshunit: m
# meshtype: rectangular
# xbase: 1.25e-09
# ybase: 1.25e-09
# zbase: 1.5e-09
# xnodes: 200
# ynodes: 50
# znodes: 1
# xstepsize: 2.5000000000000001e-09
# ystepsize: 2.5000000000000001e-09
# zstepsize: 3e-09
# xmin: 0
# ymin: 0
# zmin: 0
# xmax: 4.9999999999999998e-07
# ymax: 1.2499999999999999e-07
# zmax: 3e-09
# valuedim: 3
# valuelabels: Spin_x Spin_y Spin_z
# valueunits: {} {} {}
#
# End: Header
#
# Begin: Data Text
 0.24628100688298507 0.9634235855621045 -0.10564402695543826
 0.24987995910876756 0.96249940950207435 -0.10561672568281529
 0.25690017921190811 0.96055049997049546 -0.10651307397367106
 0.26735084262565295 0.95749308536986788 -0.10830751781960526
 0.28107791690747785 0.95327054899550323 -0.11077213117370695
 0.29791472609369091 0.9478029436066836 -0.11365032365561938
 0.31768418251007258 0.94098510988385919 -0.11672096281203481
 0.3402042159645664 0.93268898996595584 -0.11980124972728778
 0.36527078965671328 0.92277210926531383 -0.1227553851592862
 0.39267031079209092 0.9110796268486151 -0.12547486028615898
 0.42216452166761048 0.89745325185122049 -0.12788579822180229
 0.45350678785136334 0.88173209583166501 -0.12992345651589701
 0.48642706786604817 0.8637617664471221 -0.13154587972029499
 0.52064786715533384 0.84339489471181428 -0.1327058777923934
 0.55586967340321036 0.82050057806752807 -0.13337056489893376
 0.59178396275945389 0.794966483921552 -0.13349168836344169
 0.6280606558340448 0.7667089161712527 -0.13303101313908972
 0.66435757781627069 0.73567887450858416 -0.1319302937155854
 0.7003132669649822 0.70187210058091165 -0.1301417786069192
 0.7355540688963238 0.66534070273508084 -0.1276007876701821
 0.76969682727869393 0.6261999620912454 -0.12425941233578763
 0.80235644775283843 0.58464413673209992 -0.120064000159184
 0.83316109222445489 0.54094372040530603 -0.11498906799091538
 0.86176231520165236 0.49545977092950833 -0.10901984905863325
 0.88786017525206662 0.44862380058713203 -0.10218118588138765
 0.91121324330663334 0.40094368143755671 -0.094522957729354887
 0.93166366228735542 0.35296334328636259 -0.086137672765323414
 0.94913970425120009 0.30525768807539067 -0.077146391262402844
 0.96366778996523583 0.2583814357640915 -0.067700991396025312
 0.97536166366993182 0.2128588472088094 -0.057971857033906282
 0.98441585752762328 0.16914004336940019 -0.048135903202824425
 0.99108371730757128 0.12759597945449758 -0.03837096968873302
 0.99565899361303156 0.088496733635534314 -0.028835682293405055
 0.99845236793638914 0.052017210302187172 -0.019674318148176294
 0.99977319049499302 0.018238688921279958 -0.010996262723998722
 0.99991341494703334 -0.012838096343855044 -0.0028889256182778496
 0.99913718796821016 -0.041276539681642646 0.0045963997745435709
 0.99767458163504275 -0.067192047279338529 0.011430570491172543
 0.99571979547611877 -0.090729877945890214 0.017611875110851723
 0.99343165695836133 -0.11205968458279476 0.023155345909083441
 0.99093723351814911 -0.13135530565374293 0.028092399399283145
 0.98833520969635036 -0.1487939547967749 0.032463399242939964
 0.98570089844993869 -0.1645446271554937 0.036315347571560637
 0.9830903226377341 -0.17876649101049757 0.039698352961172315
 0.98054410508580392 -0.19160713423974368 0.042661037140614227
 0.97809098825225316 -0.20319993500401329 0.045252680739327478
 0.97575054439521758 -0.21366577349822755 0.047516442920747665
 0.97353517625652464 -0.22311340227162332 0.049494144279485085
 0.97145225194335449 -0.23163946862666435 0.051221858308167126
 0.96950499611267171 -0.23933109796417651 0.052732229801424557
 0.96769387065202306 -0.24626562014980161 0.054053834597919868
 0.96601709832938909 -0.25251261122998098 0.055211836639293299
 0.96447164271952113 -0.25813340401659668 0.05622807235458923
 0.96305322092928547 -0.26318376769212581 0.057120907565499195
 0.96175704778384119 -0.26771286804411393 0.057906833117561708
 0.96057802402078318 -0.27176482822743819 0.058598104976516532
 0.95951035586041167 -0.27538091101037487 0.05920499005761283
 0.9585483146131063 -0.27859787368528044 0.059735695613376598
 0.95768562710589988 -0.28145130129606794 0.060194722638528507
 0.956915378215482 -0.28397566370762067 0.060586973488837542
 0.95623057296044522 -0.28620340718035187 0.060915523917114432
 0.95562345751006839 -0.28816718464131663 0.061183994250129846
 0.95508631076671069 -0.28989741089800153 0.061397313790338637
 0.95461141269860417 -0.2914227926461207 0.061561405701228082
 0.95419157876027905 -0.29276863409255066 0.061684340918489095
 0.95382065214622391 -0.2939559570337606 0.061774257289894864
 0.9534932596177913 -0.29500239309898585 0.06184005117487084
 0.95320560766290618 -0.29592014131087885 0.061889736520195845
 0.95295479434801789 -0.29671893646047459 0.061927640637212594
 0.95273838332438232 -0.29740704799823026 0.061956603695011325
 0.95255456188905796 -0.29799112296214486 0.06197658638635236
 0.9524007942174757 -0.29848052314102236 0.061984711658466293
 0.95227380381662885 -0.29888663314540509 0.061978892307083255
 0.95217016829590417 -0.29922125756790274 0.061956513998387405
 0.9520857753236579 -0.29949763409948105 0.061918039335582341
 0.95201683782735147 -0.2997270917729481 0.061867689067405182
 0.95195992364276949 -0.29991965573536977 0.06181022473369472
 0.95191258359087472 -0.30008202539384687 0.061751204335401488
 0.95187433769696528 -0.30021496039522844 0.061694592865623711
 0.95184512451425474 -0.30031835727436174 0.061642057253728393
 0.95182457182156222 -0.30039319317486751 0.061594756034151925
 0.95181224115125018 -0.30044163134756918 0.06154903531206482
 0.95180673740822108 -0.30046922665418957 0.061499418356201659
 0.95180640859138821 -0.30048162881318385 0.06144388749208133
 0.95180938370386448 -0.30048464673954028 0.061383012039843234
 0.95181337642887631 -0.30048468156046626 0.061320898546641106
 0.95181689070524811 -0.3004853699447812 0.06126294979301878
 0.95181955911664418 -0.30048742722137373 0.061211379374072547
 0.95182195775719747 -0.30048908869358726 0.061165908048140406
 0.95182535049696071 -0.30048668533891343 0.061124905606231468
 0.95183011539721973 -0.30047956594920427 0.061085692841231005
 0.9518351948957493 -0.30047141583317838 0.061046621732705406
 0.95183873608738523 -0.30046816109390612 0.061007414733092048
 0.95183905873151642 -0.30047498591221256 0.06096875522886136
 0.95183567071786412 -0.30049328837681133 0.060931433509839886
 0.95182937230840803 -0.3005200953510227 0.06089760505302471
 0.95182145288465769 -0.30055089102609112 0.060869398978157005
 0.9518126378319911 -0.30058345098468414 0.060846458051763565
 0.95180243092937633 -0.30061976714428601 0.060826705311442963
 0.95178968511323159 -0.30066389543073896 0.060808036446422097
 0.95177351692997747 -0.30071914379113518 0.060787901989364623
 0.95175371542880371 -0.30078616065164476 0.06076636181236169
 0.95173132396902738 -0.30086115092883164 0.060745821567751164
 0.95170789227091712 -0.30093881748586593 0.060728213537507202
 0.95168403951014147 -0.30101708042900255 0.060714135352971356
 0.95165933708647954 -0.30109747539317033 0.060702688968295976
 0.95163296439709166 -0.30118305876582946 0.060691566014255308
 0.95160406254946983 -0.30127692142405266 0.060678865814959571
 0.95157311786972842 -0.3013777889359267 0.060663248213196713
 0.95154199656238159 -0.30147983887185575 0.060644336354491658
 0.9515125623885754 -0.3015770945736605 0.060622600119401918
 0.95148594641135908 -0.30166601399532339 0.060597935458673403
 0.95146215891253638 -0.30174643157448405 0.060571042500198
 0.95144010480191754 -0.30182152218472702 0.060543337541058458
 0.95141934242733017 -0.30189263809521 0.060515038784266138
 0.95140071071233545 -0.30195763737301562 0.060483658025697634
 0.95138582817903117 -0.30201238122455654 0.06044441684036727
 0.95137683729563682 -0.30205107317642471 0.06039257115177081
 0.95137566534550011 -0.30206790394082189 0.060326816567802324
 0.9513836211219584 -0.30205835705926148 0.060249102827590904
 0.95140182749866964 -0.3020181198990195 0.060163260257843645
 0.95143133802500779 -0.30194340935904446 0.060071512121638547
 0.95147255129610186 -0.30183313275732682 0.059972861362326005
 0.95152550839143124 -0.30168781243234866 0.05986376792528595
 0.95159104324381805 -0.3015055146917433 0.059740363479048514
 0.95167127540908214 -0.30128024794038971 0.059598622150418119
 0.95176919912602254 -0.30100341196473485 0.059433471887464062
 0.95188816306304069 -0.30066490429035031 0.059241373621352456
 0.95203109989158308 -0.30025523857065456 0.059021831131385476
 0.95220081168644766 -0.29976479769320941 0.058776528373319537
 0.95239942832845981 -0.29918578331037865 0.05850808477961085
 0.95262848364883301 -0.29851254517808956 0.058217115286007849
 0.9528893876301987 -0.29773988612764879 0.057903153199454931
 0.9531832338085845 -0.29686368804355079 0.057564516044093503
 0.95351187867251519 -0.29587791083162152 0.057195796281945939
 0.95387809226869569 -0.29477330306068544 0.056791591741445872
 0.95428499108171982 -0.29353928102147309 0.056345774407301381
 0.95473656497832471 -0.29216187688408951 0.055852745581174257
 0.95523701225657009 -0.29062552492273075 0.055308721541260791
 0.95579059460370741 -0.28891348880687961 0.054711381380187489
 0.95640114647406338 -0.2870092800371547 0.054060338471483518
 0.95707193974768279 -0.28489738429007821 0.053355248779096316
 0.95780602591531605 -0.28256189443846003 0.052596506838928039
 0.95860541753092621 -0.27998930656820964 0.051784569978051712
 0.95947214694817018 -0.27716536994210178 0.050917157575092027
 0.96040801083227945 -0.27407514245380865 0.049992689646673902
 0.96141442765561103 -0.27070379911403875 0.049007667164029545
 0.96249303725413071 -0.26703412599330995 0.047957572835867018
 0.96364533400250996 -0.26304722874304848 0.046838293156276946
 0.96487251599969515 -0.25872284090554332 0.045645585352615578
 0.96617544260464272 -0.25403904721995696 0.044375405297297339
 0.96755459013199108 -0.2489719448451049 0.04302424658911564
 0.96900941088413539 -0.2434975120150078 0.041589941818690197
 0.97053860591812868 -0.23759059996705278 0.040068955935877351
 0.97213996169082662 -0.23122456581834136 0.038459004743722963
 0.9738098329419671 -0.22437318049335428 0.036757110071857925
 0.97554366053193564 -0.21700803938664223 0.034958221315117791
 0.97733553235961113 -0.2090990437358213 0.033058237946400032
 0.97917800320932002 -0.20061485873024584 0.031050225243186298
 0.98106221695146678 -0.19152064648881886 0.02892695004279066
 0.98297749926187383 -0.18177839868046577 0.02668051195233339
 0.98491071932142116 -0.17134844599923849 0.024301955053181362
 0.98684666073945493 -0.16018488466671954 0.021782353217616211
 0.98876647077523039 -0.14824156497977903 0.019112945430819369
 0.99064806151249507 -0.13546660933028812 0.016285452959337449
 0.99246485805697893 -0.12180661448499507 0.013291131992589635
 0.99418531691466672 -0.10720561744066456 0.010124782489012166
 0.99577236449591799 -0.091604938233152577 0.006777418203776712
 0.99718231842275473 -0.074945851932885915 0.0032470144862192431
 0.99836449759354384 -0.057167341370322346 -0.0004743684642869757
 0.99926008606555783 -0.03821031017462298 -0.0043877776394105599
 0.99980162340303524 -0.018013451958371184 -0.0084987875134550188
 0.99991190350181947 0.0034793126090944732 -0.012809356702679986
 0.99950326876961415 0.026327553376479636 -0.017322691825025601
 0.99847668588017868 0.050581203998225639 -0.022041995277764303
 0.9967205520397604 0.076294415052223327 -0.026968562686846005
 0.99411032425035184 0.10350782398991622 -0.032105974393141168
 0.99050669018838999 0.13226390554243961 -0.037453384128828635
 0.98575588151993754 0.1625890730399186 -0.043013200030583391
 0.97968782199160909 0.19450497493396185 -0.048781002114310953
 0.97211679329821998 0.22801478145932358 -0.054755818171613575
 0.96284097117636203 0.26310675151153656 -0.060927018088909761
 0.95164325799686977 0.29974592599608413 -0.067286620942453398
 0.93829412426234049 0.33786932139231518 -0.073813671068876097
 0.92255338961461175 0.37738176447283944 -0.080487559001108017
 0.90417884755920042 0.41814394763744445 -0.087271133146593668
 0.88293133691562198 0.45997055493220301 -0.09412408240059239
 0.8585920510098316 0.50261444536412359 -0.10098717371055105
 0.83097470588551825 0.54576660981398584 -0.10779538854062919
 0.79995416196330182 0.58904216712742297 -0.11446686902078008
 0.76548876206139005 0.63198565557112385 -0.12091768402536314
 0.72766054582230533 0.67406686451364961 -0.12705901077185239
 0.68670683797279353 0.71469807679717923 -0.13281708362940636
 0.64306740885916525 0.75324716750566378 -0.13814127662597359
 0.59742147036494697 0.7890692650906459 -0.14302895383904948
 0.55074172295257851 0.82153249892233404 -0.14753951271998406
 0.5043589229635892 0.85004498407986717 -0.15180777933843392
 0.46010982039008252 0.87404644988718694 -0.15601844961481703
 0.42074426009155047 0.89290619710429109 -0.16028970887978591
 0.39155948019385867 0.90538552732913047 -0.16418958667731431
 0.22755875368955542 0.96856473247077746 -0.1004956348955889
 0.23372596264962792 0.96714620385042771 -0.10000197378657882
 0.24243322097480943 0.96493839294822048 -0.10059836570384646
 0.25377664422606944 0.96184922470613166 -0.10219336464550188
 0.26792306201601668 0.95775625427676725 -0.10449971403644223
 0.2848893362681395 0.95254142024279265 -0.10725161445191506
 0.30462136375538273 0.94607524717146374 -0.11021547728547347
 0.32699311845263307 0.93821981423855183 -0.11322137896528034
 0.35186409777622879 0.92882001333019903 -0.11612510294251439
 0.37904310924021839 0.91771672984733788 -0.11883738930074331
 0.40834062129617776 0.90473843197086368 -0.1212695621924746
 0.43952210051141127 0.88971785753415777 -0.12337932220135261
 0.47235932850354861 0.87248251251373399 -0.12510367753746782
 0.5065825476810456 0.85287291216592553 -0.12641961113132238
 0.54192581774580117 0.8307342375617407 -0.12726757090185367
 0.57808423959479049 0.80593448425816627 -0.12762530711279904
 0.61474919100966785 0.77836163032339911 -0.12742293589954376
 0.65157639053173666 0.74793944933663103 -0.12662854112580965
 0.68820878822088671 0.71463531557538795 -0.12516001577182895
 0.72426289551187062 0.67846885368654819 -0.12297671634103116
 0.75933983050117793 0.63953417875184493 -0.11999606669656096
 0.79303523807274945 0.59799359498509452 -0.11618421378010128
 0.82494287738284777 0.55411248027247906 -0.11148366813838347
 0.85468729485589745 0.50822839395131658 -0.10589394502790797
 0.88192292312383369 0.46079140974302574 -0.09941445757910404
 0.90638001379034272 0.41230105704172076 -0.092103794513026901
 0.92785708470540129 0.36334368231411729 -0.084039269894566185
 0.94626159563328616 0.31450290590330543 -0.075345303821299642
 0.96159140894667028 0.2663894765754361 -0.066171058702597735
 0.97395356441481007 0.21954800520223453 -0.056684457970470094
 0.98353452015745813 0.17448250413512131 -0.047071258846308278
 0.99059510416228735 0.13158657678254773 -0.037500832262200752
 0.9954375242019603 0.09116917060878961 -0.028148139213405299
 0.99838843351942241 0.053422974967960071 -0.019144752811321584
 0.99977343160176757 0.018448646923560616 -0.010617574577831806
 0.99990208543563031 -0.013741882564335251 -0.0026420077716814462
 0.99905486742566829 -0.043210070265112262 0.0047182306815580629
 0.99747688430938031 -0.070064039453667806 0.011440963415997187
 0.99537459653372851 -0.094459016012511568 0.017518757640462065
 0.99291804591733301 -0.11655979427236601 0.02296885828440403
 0.99024191748806478 -0.13655379465228171 0.027820963599833375
 0.98745225754935984 -0.15461778718013669 0.032115089104507243
 0.98462885657318167 -0.17093067776539833 0.035898721454259104
 0.98183173833062964 -0.18565639765632611 0.039219123089766113
 0.97910413245608852 -0.19894805753175759 0.04212799795564464
 0.97647679077106186 -0.21094476526010997 0.0446697111564952
 0.97397032548838292 -0.22177254982149366 0.046890736971460484
 0.97159824310345166 -0.23154371298671711 0.048829939326305506
 0.96936815949000266 -0.24035960247437527 0.05052358721750895
 0.96728346307919444 -0.24831086389803644 0.052004008727514789
 0.96534471371968933 -0.2554775213121816 0.053299341437159933
 0.96354996826324735 -0.26193210822429136 0.054433715113641076
 0.96189566746084942 -0.26773925745364646 0.055429368914116151
 0.96037758931365891 -0.27295549260576935 0.056304395924536101
 0.95899035334773197 -0.27763295814286965 0.057074011063108221
 0.95772830146400856 -0.28181780157621766 0.057751426732271356
 0.95658562268981462 -0.28555139915030359 0.058346764318544561
 0.95555590039666294 -0.28887311080246053 0.058866349236487481
 0.95463220037740171 -0.29181988187491231 0.059317101624343067
 0.95380769479165206 -0.29442581216668007 0.05970194708906628
 0.95307434008251413 -0.29672612728199244 0.060024225646909145
 0.952424117815036 -0.29875353147804196 0.060287869705681188
 0.95184873230546851 -0.300539624313722 0.06049731420351992
 0.95134002221581349 -0.30211373623466709 0.060658490821529618
 0.95089026336224114 -0.30350232292113521 0.060778672446531075
 0.95049267493296064 -0.30472752770906553 0.060867140191616181
 0.95014210157005274 -0.30580597126512937 0.060931886255346734
 0.94983391841965537 -0.30675228806244953 0.060980006461260589
 0.94956505618875897 -0.30757605512081004 0.061017820196721355
 0.94933338684029389 -0.30828464258894578 0.061046701582828683
 0.94913638047815885 -0.30888680718540679 0.061066124812573924
 0.94897144647828491 -0.30939139494945717 0.061075023537781513
 0.94883536735301699 -0.30980954633627583 0.061069555909440007
 0.94872405753640188 -0.31015447166156074 0.061048065980867587
 0.94863353246875426 -0.31043861838335846 0.061010534271422757
 0.94855940473315614 -0.31067476563016616 0.060961017814023896
 0.94849824581025421 -0.3108723873562288 0.060905143250054444
 0.94844765280943499 -0.31103805075408186 0.060847192732079093
 0.94840656335140772 -0.31117424738141369 0.060791268769315787
 0.94837516142767864 -0.31127983235991713 0.06074058900773207
 0.9483533795634751 -0.31135522172157476 0.060694261485286304
 0.94834008662854052 -0.31140447833189122 0.060649245405156343
 0.94833411531128342 -0.31143201263068332 0.060601214885243115
 0.94833381124534744 -0.31144350960763872 0.060546864263564787
 0.9483368962619283 -0.31144573955869481 0.060487044059288363
 0.94834115732024105 -0.31144457349021043 0.060426211001576323
 0.94834507025466575 -0.31144373179003265 0.060369111740783923
 0.94834794341695039 -0.31144477344866656 0.06031858178330736
 0.94835070653135944 -0.31144490000563563 0.060274469570051524
 0.94835459410071243 -0.31144091953651026 0.060233856644963238
 0.94835970794481383 -0.31143279788981165 0.060195321623454694
 0.94836514675738937 -0.31142352858570405 0.060157578567164811
 0.94836913322873795 -0.31141881707223712 0.060119111040506885
 0.94836959045574309 -0.311424892677784 0.06008041377551461
 0.94836611260644066 -0.31144250267926538 0.060044017059350897
 0.94835964220590785 -0.31146855564088527 0.060011064663635087
 0.94835125351675564 -0.31149944968511023 0.059983270993433979
 0.94834186912611651 -0.31153237510391385 0.059960641461697058
 0.94833119797054766 -0.31156854797855887 0.059941461996504554
 0.94831773766142502 -0.31161310826436572 0.059922776926119713
 0.94830042719927798 -0.31166960225787793 0.059902911465827581
 0.94827947309500671 -0.31173738660502021 0.059881906276676652
 0.94825573590453349 -0.31181343495840202 0.059861850151779014
 0.9482306655809607 -0.31189303856150385 0.059844275822841672
 0.94820511076728065 -0.31197335445358593 0.059830544254471818
 0.94817879723790888 -0.31205543326759322 0.059819520531739168
 0.94815057338644659 -0.31214333873113836 0.059808245858997112
 0.94811974725573545 -0.3122394542448772 0.059795217840406978
 0.94808676510117718 -0.31234245721272552 0.059780224675907434
 0.94805348275670265 -0.31244688715684821 0.059762333780419272
 0.94802185094438474 -0.31254697337083071 0.059740769736555295
 0.94799321897954669 -0.31263846999650291 0.059716361636012301
 0.94796745194512344 -0.31272160757321238 0.059690084683268259
 0.94794360886407725 -0.31279904857036195 0.059662966966332068
 0.94792125096590729 -0.31287213581237172 0.059634961217682032
 0.94790115406068354 -0.3129388724705951 0.059604229944333162
 0.94788509238262109 -0.31299485357377749 0.059565705528599175
 0.94787522088866039 -0.31303428965321106 0.05951553685032749
 0.94787335592105337 -0.31305210025337304 0.059451523629864375
 0.94788119463149978 -0.31304284059152843 0.059375254259225067
 0.94790007872270854 -0.31300157663138728 0.059291262288374114
 0.94793072759028074 -0.31292567732254006 0.059201825667714897
 0.9479739596818626 -0.31281304835610424 0.059104725219324472
 0.9480299632253677 -0.31266349321738829 0.058997701955315306
 0.94809938828614504 -0.3124756434139167 0.05887717897875433
 0.94818438187775433 -0.31224372718340282 0.058738682294698148
 0.94828824210149176 -0.31195849370854345 0.058577368455397162
 0.94841440545849331 -0.31160995019929355 0.058389677646022625
 0.94856602997746531 -0.31118819613245918 0.058175539194892663
 0.94874583816493763 -0.31068435133164168 0.057935899081199248
 0.9489566311898453 -0.31008895750770343 0.057672788666803053
 0.94920002517293411 -0.30939605869643955 0.057388074325689056
 0.94947722888986208 -0.30860128767021955 0.057080969402341607
 0.94978989115686974 -0.30769914095609252 0.056748579815749753
 0.95014005407938118 -0.30668274667401413 0.056387680627182864
 0.95053018486424745 -0.30554414490063508 0.055992349288803242
 0.95096384889354169 -0.30427172242674416 0.055556071036779481
 0.95144535794156393 -0.30285083140532598 0.055073630428291172
 0.95197893731164496 -0.30126610204732573 0.054542081663622899
 0.95256905372312961 -0.29950083347468809 0.053957841292890003
 0.9532201418388071 -0.29753704643149015 0.053320420043636865
 0.95393577739671809 -0.29535840660981966 0.052630259807715449
 0.95471885669877876 -0.2929498353128035 0.051887365070680737
 0.95557228454123622 -0.2902952820508567 0.051090686388582572
 0.95649815154957341 -0.28737985862688614 0.050240451210556765
 0.95749814094860708 -0.28418917850113584 0.04933377040943647
 0.95857428712719228 -0.28070624352794959 0.048366733433454642
 0.95972833983845252 -0.27691289329423396 0.04733670075474368
 0.96096149506349815 -0.27279110382808314 0.046238714056324633
 0.96227553546743827 -0.26831821532857303 0.04506805036547356
 0.96367130953294544 -0.26347153088959729 0.04382190769181548
 0.96514899647088537 -0.25822755684968812 0.042496393902120781
 0.9667085570148799 -0.25255961410486027 0.04108779767051305
 0.96834850841367148 -0.24644155622930111 0.039594514977430051
 0.9700663740486043 -0.23984631049637592 0.038012856791742169
 0.97185873652474408 -0.23274471733306137 0.036338585471665769
 0.97372071171891605 -0.22510651743556903 0.034569225875591192
 0.97564584259575649 -0.21690105429003059 0.032697438332224181
 0.97762663111537518 -0.20809270932471277 0.030717982679578395
 0.97965345352656097 -0.19864493573825071 0.028623425703934769
 0.9817145157408288 -0.18851894135465722 0.026404892241201901
 0.98379649482189402 -0.17766778590835325 0.024054409711705749
 0.98588178516514902 -0.16604868372727605 0.021562474626491357
 0.98795095665695942 -0.15360633685985745 0.018920901593073143
 0.98997918560651699 -0.14029030715358576 0.016119608699036492
 0.99193779701123208 -0.12604117969855919 0.013154006260428872
 0.99379227546869819 -0.11080019499770728 0.010011493755536822
 0.99550178157372038 -0.094506103164671659 0.0066932315197685546
 0.99701869455052716 -0.077094597363980569 0.003185243169399222
 0.99828699791889253 -0.058504797622235066 -0.00050837118973928307
 0.99924237427797158 -0.03866944372537795 -0.0043990418606990661
 0.99981030353532196 -0.017532199272924962 -0.0084840399139740359
 0.99990608733373398 0.0049750596475839539 -0.01276970220663653
 0.99943334183865606 0.028899892248354302 -0.017256634934124652
 0.9982831007171401 0.054306924322966715 -0.021945587099733873
 0.99633378031762643 0.081231791558040264 -0.026840160920882157
 0.99344852228157599 0.10972767110479624 -0.03193543127109677
 0.98947730919158772 0.13981460022253575 -0.037236167359003751
 0.9842530054193791 0.17152280323979305 -0.042731127900897385
 0.97759490378212599 0.2048495980179576 -0.048423612949644722
 0.96930579370882142 0.23978821080328624 -0.054294495506177883
 0.95917527122552448 0.27629992859454389 -0.060341930099156005
 0.94698111805751195 0.31432409849274384 -0.066536630131594041
 0.93249126060969789 0.3537662294968823 -0.072866341709294402
 0.91547295858150679 0.39449038234562489 -0.079288084494617786
 0.89569371679978804 0.43632071779726395 -0.085772938076419711
 0.87294144654016137 0.47902117865198984 -0.092260182718380573
 0.84702678040709367 0.52230659244646804 -0.098698818433415103
 0.8178157240663243 0.565818392199822 -0.10500946870774124
 0.78523659380897837 0.60914335724747348 -0.11112093441179512
 0.74932437340148927 0.65179523408349749 -0.11694424420425414
 0.71023263674089609 0.69324314980839585 -0.1224072585748424
 0.66828494209155276 0.7329076854064942 -0.12744238245491724
 0.62398956577556663 0.77019954330321638 -0.1320215334660863
 0.57809308694756378 0.80453056282148649 -0.13615783601974119
 0.53160732956787649 0.83535136538730426 -0.13993478300721957
 0.48589942782665524 0.86215304871739085 -0.14350563272930308
 0.44285217463523097 0.88444824323456472 -0.14708248182614775
 0.40537467131992067 0.90162343142222257 -0.15081963984403066
 0.37905583398172044 0.91240384070729019 -0.1543888149673032
 0.20503510516640522 0.97416527420136345 -0.09467113704600677
 0.21231872741419103 0.97268067262885005 -0.093877937149824855
 0.22231094563279763 0.97041629800568663 -0.094180953577620088
 0.2346087530504366 0.96738413107372878 -0.095533637734811383
 0.24932675520538186 0.96348301060967856 -0.097655810913972532
 0.26658364495960013 0.9585833531727479 -0.10025525053654241
 0.28638853225794619 0.95254886082697143 -0.10311292997669372
 0.30871441347492484 0.9452254359752198 -0.10603907816597102
 0.33344857060680533 0.93645551553226836 -0.10891794245886167
 0.36047960675035196 0.92606301857393025 -0.11163215821102894
 0.38962629992784292 0.91387373264033633 -0.11413214794508016
 0.42072377210555056 0.8996984914127365 -0.11633628898552141
 0.45354452332005862 0.88335708388131096 -0.11822701773743359
 0.48787758258423897 0.86466157212111472 -0.11973232691634099
 0.52345467854043515 0.8434405938443077 -0.12084355245395276
 0.56001439563715416 0.81952825737271051 -0.12147967750534057
 0.59724281848251426 0.79278503421570112 -0.12162608805133954
 0.63481745639929166 0.76309955781439875 -0.12118523802098398
 0.672371873225318 0.73040048910369115 -0.12012988642534245
 0.70951664768429723 0.69467904461537477 -0.118351812960796
 0.74583662957766039 0.65598313979771949 -0.11581814314416124
 0.78089288529068968 0.61446369990565131 -0.11243070399423559
 0.81425413218252718 0.5703410847719329 -0.10817234047969204
 0.84548752916339209 0.52396961240300477 -0.10298875330552945
 0.87421743117012807 0.4757655694493404 -0.096907202853282651
 0.90010819223750715 0.42627944516173916 -0.089950413559509154
 0.92293190081934373 0.37608271253660303 -0.082210095372185099
 0.94254133965989118 0.32583689313688152 -0.07379798170032989
 0.95892124098231213 0.276157063074078 -0.064863935335765649
 0.97214968146790504 0.22767332994952352 -0.055586434060355773
 0.98241763036877072 0.18090540827513205 -0.046139276082498251
 0.98998444479288017 0.13631762947840964 -0.03671924511097413
 0.99517043331736521 0.094237357517086631 -0.027479612426754268
 0.99831890335597762 0.054899139972838622 -0.018586329179291958
 0.99977890354511834 0.018420087565582263 -0.010141222815693371
 0.99988230624364038 -0.015176059098981303 -0.0022496424434309591
 0.99893163619608782 -0.045936286589880061 0.005044182881222996
 0.99719111454613985 -0.073979609691962073 0.01170035982577057
 0.99488493495094499 -0.099448198447518857 0.017720666838380049
 0.99219575049475806 -0.12252839568963264 0.023116767721041671
 0.98927110278630326 -0.14339879689979756 0.027918994245177329
 0.98622412970597206 -0.1622563139223909 0.03216915569325151
 0.98314271056060498 -0.17927865180932767 0.035910662441344755
 0.98009084504018018 -0.19464226453820865 0.039195973311856099
 0.97711596501276909 -0.2085053283626504 0.042070404817975297
 0.97425097442813868 -0.22101420821594228 0.044584286385479344
 0.97151846274564602 -0.23230070388706497 0.046778836218005916
 0.96893284418490289 -0.24248276978268635 0.048695480470690812
 0.96650222234717331 -0.25166720832466588 0.050369340397153933
 0.96423058731903333 -0.25994763154696554 0.051832454423025712
 0.96211799567341039 -0.26740993626346227 0.05311203619661372
 0.9601624430703436 -0.27412912449364701 0.054233808842232799
 0.95836031904233665 -0.28017233321404206 0.055217411986352126
 0.95670621044970638 -0.28560109821245239 0.056082435635438056
 0.95519495041947078 -0.29046756184237171 0.056843664646931441
 0.9538199108920683 -0.29482154733741234 0.057513761930699063
 0.95257480907496028 -0.29870605929360883 0.058102695781574343
 0.95145252612689024 -0.30216225072813335 0.058617955966308748
 0.95044589603055019 -0.30522771543217769 0.059064714091732778
 0.94954697219682305 -0.30793936729976651 0.059446561371246293
 0.94874724079203632 -0.3103329997124939 0.059767067678974627
 0.94803826551606485 -0.31244179585183524 0.060029753640769894
 0.94741071571895563 -0.31429977426769118 0.060237759222723904
 0.94685565972560171 -0.3159372110922572 0.060398992482011284
 0.94636525504631552 -0.31738023457666081 0.060519341876676062
 0.9459317149493861 -0.31865332112010897 0.060607355923502457