# OOMMF OVF 2.0
#
# Segment count: 1
#
# Begin: Segment
# Begin: Header
#
# Title: Oxs_TimeDriver::Spin
# Desc: Oxs vector field output
# Desc:  MIF source file: /home/debasis/Downloads/STD_Prob_4/stdprob4.mif
# Desc:  Iteration: 200, State id: 1436
# Desc:  Stage: 0, Stage iteration: 200
# Desc:  Stage simulation time: 9.40255e-11 s
# Desc:  Total simulation time: 9.40255e-11 s
# meshunit: m
# meshtype: rectangular
# xbase: 1.25e-09
# ybase: 1.25e-09
# zbase: 1.5e-09
# xnodes: 200
# ynodes: 50
# znodes: 1
# xstepsize: 2.5000000000000001e-09
# ystepsize: 2.5000000000000001e-09
# zstepsize: 3e-09
# xmin: 0
# ymin: 0
# zmin: 0
# xmax: 4.9999999999999998e-07
# ymax: 1.2499999999999999e-07
# zmax: 3e-09
# valuedim: 3
# valuelabels: Spin_x Spin_y Spin_z
# valueunits: {} {} {}
#
# End: Header
#
# Begin: Data Text
 -0.034092574368119057 0.99208242611483644 -0.12087247894808156
 -0.043411999786299248 0.99175190116264533 -0.12059670316734619
 -0.052030688593427382 0.9912424636397722 -0.12137209614177799
 -0.05768154366326992 0.99070339065257873 -0.12320564625903446
 -0.059570877941928925 0.99026122081107204 -0.12583332253021531
 -0.057336601398632864 0.98998996328059319 -0.12896661096479226
 -0.050806959749367372 0.98990044190751003 -0.13234714939258144
 -0.039908574052816032 0.98993587045777054 -0.13577289161716707
 -0.024643175516219744 0.98997426294844448 -0.13908153220381539
 -0.0050578397885594787 0.98983098442352779 -0.14215850495775134
 0.018747520481368605 0.98926676393183943 -0.14491307827669273
 0.046641811595631404 0.9879931250543047 -0.1472892604927688
 0.078444569117004398 0.98568395276825449 -0.14924340799913688
 0.11394919230868783 0.98198151701914571 -0.15075769235755471
 0.152899829776215 0.97651020612156658 -0.15182048410810703
 0.19501918507980331 0.96888074994999096 -0.15243887242810689
 0.23998282067645582 0.95870477490933603 -0.15262175580896586
 0.28745096835264106 0.94559493198300093 -0.15238820624048588
 0.33704051806894608 0.92917949416511258 -0.15175360556798023
 0.38835724610496564 0.9090977081810967 -0.15073157060697226
 0.4409644597549911 0.88501556007593718 -0.14932449114751423
 0.49441063995038725 0.85661915151270529 -0.14751863734966314
 0.54819470465174591 0.82363577461055759 -0.14528137035921709
 0.60178633379491031 0.78583221924328628 -0.14255150527739979
 0.65459243580357607 0.743047162562815 -0.13924674931965578
 0.70597447649363132 0.69520248044605903 -0.1352536495669899
 0.75522865848941589 0.64234939943269154 -0.1304489265756435
 0.80161457199941299 0.58469267557316928 -0.124693837415032
 0.84436746546258457 0.52263774386567186 -0.11787014870310332
 0.8827531860149217 0.45680762737114555 -0.10987995338572841
 0.91611889927241885 0.38805696727317612 -0.10068740013843193
 0.94396608846841012 0.31744493429808096 -0.090314658334828685
 0.96600931694725645 0.24618148414991584 -0.07887126493748986
 0.98222063903157175 0.17554439475844685 -0.066534064427941339
 0.99284011769472025 0.10677485538636113 -0.053550265668395429
 0.99835063684382086 0.040987204649410885 -0.040200186175749802
 0.99942238621794099 -0.020919555899744254 -0.026781824198404261
 0.99683782486099581 -0.078294520408887722 -0.013576413382810123
 0.99141402255890976 -0.13075755844750542 -0.00083473493328761771
 0.98393648970099268 -0.17816462804316385 0.011240531532340637
 0.97510915017083788 -0.22058088928101116 0.022499256367819159
 0.96552753665588054 -0.25822079223355021 0.032842022128740253
 0.95566683280466691 -0.29140792624273226 0.042217593489055023
 0.94588730898486173 -0.32052415708972432 0.050610902217786365
 0.93644524380449157 -0.34597900356219369 0.058041661330961128
 0.92751040657709749 -0.36818154506343559 0.064550720878149059
 0.91918309091026684 -0.3875234759556731 0.070199721992904848
 0.91151048833476589 -0.40436969643142112 0.075058498943669852
 0.90450242943189996 -0.41904883095291962 0.079205002548970407
 0.89814272018094565 -0.43185365919307983 0.082716813451188254
 0.89239986940161964 -0.44303799727659737 0.085672668110161859
 0.88723308271627987 -0.45282171059488086 0.088147350202334288
 0.88259776826745151 -0.46139261888578526 0.090211034175595867
 0.87844852722807565 -0.46891100749500753 0.091927428229239092
 0.87474215120033594 -0.47551209923797283 0.093351017089825225
 0.87143855627292155 -0.48130968269624314 0.094529529692091815
 0.86850176186881956 -0.48639880505599847 0.095503361568339537
 0.86589871515502703 -0.49086085179999073 0.096307005264732043
 0.86359934717692965 -0.49476569278950994 0.096969463204129663
 0.86157594920518676 -0.49817462894145714 0.097513705858319658
 0.85980299798196291 -0.50114172708407778 0.097958021807386123
 0.85825777261005753 -0.50371379899468138 0.098315840314613018
 0.85691950931945893 -0.50593198940123318 0.098599070219796109
 0.85576936312969731 -0.50783238307209122 0.098818357767741047
 0.85478934851430044 -0.50944822125372158 0.098983228518355101
 0.85396244258680176 -0.5108099420583232 0.099102723199494619
 0.85327291849213538 -0.51194534692679083 0.099183105052833828
 0.85270624292299058 -0.51287984066745995 0.099228686966415791
 0.85225008694021298 -0.51363476181654211 0.099242736580887669
 0.85189329804232128 -0.51422924105864631 0.099227498158653157
 0.85162529727620884 -0.51468099992870731 0.09918579208533336
 0.85143588263159098 -0.51500685210213515 0.099120532964735733
 0.85131423396212513 -0.51522456997278598 0.099033921208027023
 0.85124959011402201 -0.51535178059249687 0.098927638053542266
 0.85123192237417122 -0.51540504476615301 0.098802095933095607
 0.85125216724187347 -0.51539913632899859 0.098658390607874055
 0.85130278256455583 -0.51534601061234575 0.098499044380057507
 0.85137739586011907 -0.5152553090350831 0.098328512292229373
 0.85147043314569937 -0.51513494037346064 0.098153424214880033
 0.85157743156034738 -0.51499092737549446 0.097980726564003667
 0.85169452217376218 -0.51482864781501447 0.097815664840406713
 0.85181902457719183 -0.51465191512338548 0.097661433678771059
 0.85194994083385645 -0.51446252017901295 0.097517247932081844
 0.85208695783825583 -0.51426152684603377 0.097380173998265859
 0.85223023524729991 -0.51404930885388866 0.097246769597613969
 0.852379455913988 -0.51382709446549568 0.097113233541677085
 0.85253276311708126 -0.51359831597106376 0.096977614136676771
 0.85268672042972971 -0.5133686347406804 0.096840082957843063
 0.85283681450954585 -0.5131453872594377 0.096701496118582156
 0.8529783149757858 -0.51293608369721666 0.096563803893753353
 0.85310784297637565 -0.51274595164540149 0.096429234796545804
 0.85322398159172341 -0.51257707245243489 0.096299439421305671
 0.85332765021596613 -0.51242766398358675 0.096175935458005027
 0.85342164268031484 -0.5122929190244474 0.096059694577091556
 0.85350942316108924 -0.51216708740372452 0.095950712116223386
 0.85359354697931455 -0.51204606363815053 0.095848240818221533
 0.85367533008661378 -0.51192794888231108 0.095750749107570393
 0.85375392517995496 -0.51181467138075687 0.095655514212343612
 0.85382682739983562 -0.51171090546182529 0.095559918604874797
 0.85389152996433459 -0.51162125541280568 0.095461751843304424
 0.85394617878507517 -0.51154904995519501 0.095359809292518957
 0.85399055980860938 -0.51149469438440909 0.095253878526691635
 0.85402700340192428 -0.5114541228775995 0.095144929722161306
 0.85405950593042168 -0.51142049779511289 0.095033861148977508
 0.85409257109401227 -0.511386233545437 0.094921020549882967
 0.85413036607061232 -0.51134452379658535 0.094805568081865035
 0.85417548805897536 -0.51129134189919567 0.094685792482985809
 0.85422848334544144 -0.51122623275735579 0.094559172913413758
 0.85428843030737045 -0.51115110707142197 0.094423638897411719
 0.85435433732209576 -0.51106789819384824 0.094277620539792217
 0.85442589786083722 -0.51097729302028727 0.094120088622789089
 0.85450501172379167 -0.5108762699429269 0.09395010243807432
 0.85459589275184611 -0.51075806262678847 0.093765993587253765
 0.85470441548579457 -0.51061343990543828 0.093564294135218148
 0.85483706695805484 -0.51043227728440166 0.093340662418956194
 0.85499969991902092 -0.51020545290686703 0.09309086401190457
 0.85519668643046753 -0.5099261678165794 0.092811264910281868
 0.85543119314679084 -0.50958915037337937 0.092500657366287486
 0.8557053302047849 -0.50919038517777471 0.092160400941129622
 0.85602166442365057 -0.50872489819208966 0.091792635852834675
 0.85638380659874214 -0.5081860771321185 0.091398505482949186
 0.85679624828470913 -0.50756610576003336 0.09097712464593391
 0.85726431767286404 -0.506856283383879 0.090524016919046588
 0.85779365923781992 -0.50604767846685883 0.090032134761392796
 0.85838950619304422 -0.50513198217186772 0.089493777687509976
 0.85905723635693154 -0.50410022672908306 0.088902340095625532
 0.85980292888185117 -0.5029416358407468 0.088253240303255057
 0.86063381492361091 -0.50164282014753603 0.087543803918145133
 0.86155867310069645 -0.50018728844005622 0.086771707877345353
 0.86258679065881194 -0.49855724481709945 0.085934290136787633
 0.86372748641371255 -0.4967344814529478 0.085027549353849693
 0.86498908133081465 -0.49470179685893562 0.084047732646476761
 0.86637833888668603 -0.49244378959709556 0.08299209598026952
 0.86790143236885819 -0.48994495439520752 0.081859912990194211
 0.86956452203750512 -0.48718861682920311 0.08065230093266619
 0.87137369671603726 -0.48415727153772686 0.079370127180012365
 0.87333546086221414 -0.48083172310283684 0.078012991601019724
 0.87545547241032573 -0.47719323833692417 0.076578907750978517
 0.87773821596543733 -0.47322397782483233 0.075064579166568987
 0.88018704405914339 -0.46890656208000386 0.07346702327397818
 0.88280469856946242 -0.46422288792346045 0.071784221885334745
 0.88559389461951699 -0.45915295268390099 0.070014426044145095
 0.88855760101034653 -0.45367418941684667 0.068155113848520632
 0.89169868248427586 -0.44776196004629831 0.066201863956415322
 0.89501899449401978 -0.44139087487438694 0.06414900679306744
 0.89851915940321347 -0.43453479410199769 0.061990587189323765
 0.90219888361488365 -0.42716567008112677 0.05972155982725004
 0.90605694579587071 -0.41925301969531537 0.057338612220893502
 0.91009173486615491 -0.41076256812142686 0.05483745762344059
 0.91430031458498195 -0.40165732563621903 0.052214246260609609
 0.91867778301818581 -0.39189852872696246 0.049463867321847939
 0.92321656827991139 -0.38144631534589646 0.046581933863921718
 0.9279066324132681 -0.37025841279631094 0.04356591875566268
 0.93273476090523555 -0.35829119520911218 0.040413923772371088
 0.93768535704746936 -0.34549657463803801 0.037125302586547934
 0.94273858319484616 -0.33182593701082225 0.033697348303153039
 0.94787031643496678 -0.31722881565837641 0.030128752670163926
 0.95305138313127769 -0.30165416022089814 0.026416448152304466
 0.958247244732092 -0.28504949908565336 0.022561051269219649
 0.96341817135906394 -0.26735920478196346 0.018560245513289698
 0.968517625432467 -0.24852733767940341 0.014414286407702284
 0.97349260031115181 -0.22849449385056797 0.01012044561295701
 0.97828108196586894 -0.20720493155800693 0.0056781163892890242
 0.98281355176795737 -0.1845977779388551 0.0010875850723726414
 0.98700993143365812 -0.16061777894577467 -0.0036502517518389277
 0.99078106032885971 -0.13520387083248339 -0.0085325146078732341
 0.994025286244267 -0.10830463977948204 -0.013558588025294581
 0.99662973865621518 -0.079866407735101841 -0.018722204505202289
 0.9984680184887067 -0.049845670176152462 -0.024021349252819128
 0.99940065137454237 -0.01820092058558281 -0.029445959348913191
 0.9992734354273517 0.01509876967956362 -0.034994691074244993
 0.99791764894095647 0.050074702043461004 -0.040655751713784181
 0.99514874065061776 0.086737553938013148 -0.046428231910550441
 0.99076708390061718 0.12508117214934988 -0.052299960160713213
 0.98455593932083463 0.16508822529982312 -0.058270749226551899
 0.97628397169236925 0.20671533209201201 -0.064330226912876029
 0.96570196344006676 0.24990526033923971 -0.070477504657705234
 0.95254850066321128 0.29456416618462972 -0.07670271106174896
 0.93654555192788047 0.34057806021576842 -0.083000084721441381
 0.91740960605843758 0.38778255802355999 -0.089354923783789425
 0.89484811999486569 0.4359807239049599 -0.09574784867014792
 0.86857922867258275 0.48490819014750847 -0.10214778825999703
 0.83833314643621604 0.53425044520629061 -0.10850805215851228
 0.80388414671135588 0.58360866518138832 -0.11476586858187998
 0.76506177422011534 0.63251868944788692 -0.12083289753331695
 0.72179626826107768 0.68042768211456606 -0.12660298786593258
 0.67413980860832301 0.7267233104633013 -0.1319422164388418
 0.622317917275238 0.77073435974907867 -0.1367075584610736
 0.56674881739508542 0.81178040676023655 -0.14074213719230355
 0.50807946099362433 0.84920335638074784 -0.14390594438069967
 0.44717849457220094 0.88243557327358635 -0.14607824277919379
 0.38513066460577272 0.91104761456838512 -0.14719583951175719
 0.32318578863400321 0.93480810160654959 -0.14725745887993713
 0.26270859798073737 0.95371029238582794 -0.14635870573469079
 0.2051028163212727 0.96798642488183206 -0.14468972313737932
 0.15175829900593393 0.97808350553426215 -0.14255551509722314
 0.10401477629176863 0.98462210493511049 -0.14035753198929379
 0.063204690711074291 0.98833256729209651 -0.1385781494389762
 0.030873852613950314 0.98999456218909343 -0.13768649919580808
 0.0097874926965024998 0.99040145235553667 -0.1378737399172151
 -0.042753577863552668 0.99265228816676176 -0.11319702459498361
 -0.048577131794216341 0.99245069489133508 -0.11261385561445623
 -0.054924777611436396 0.99205383647861134 -0.11319211250084073
 -0.059242426919159839 0.99161380724398007 -0.11485813917971646
 -0.060373638098871418 0.99125695396017599 -0.11732295192459247
 -0.057775277580140075 0.99105722229746873 -0.1202813345143941
 -0.051168563622382292 0.99102549696344588 -0.12349187206118986
 -0.040436081452849916 0.99111063141390321 -0.12674635937600956
 -0.025530328191459065 0.99119754275816208 -0.1299062491669194
 -0.0064873739346377069 0.99111518648454522 -0.13284803761869232
 0.0166338845958727 0.9906369469238121 -0.13550554701826581
 0.043704717151144698 0.98949381576242956 -0.13781105277388145
 0.074590935233139061 0.98737422195886682 -0.13974383060503351
 0.10908819051665032 0.98394185182627758 -0.14127348977950141
 0.14699710551221981 0.97883191777648437 -0.14240761114855888
 0.18804621962718485 0.97167338796799074 -0.14314135111396328
 0.23197801050156228 0.96207834101450684 -0.14349727661008491
 0.27846261661290267 0.94966874645816302 -0.14348464429923088
 0.32719009938772292 0.93405662819652535 -0.14312530937884432
 0.37777747002602741 0.91487637155230062 -0.14242685110621056
 0.42985917690229286 0.89175665127382331 -0.14139010906629995
 0.48299056030940934 0.86436107651460525 -0.14000017163745043
 0.53672794051706652 0.83235798741814371 -0.13821468319077279
 0.59053498764447276 0.79547400561412362 -0.13597622865767245
 0.643848542561134 0.75347259303152125 -0.13318448029804078
 0.69600053273237972 0.7062241062931861 -0.12973345800769417
 0.74627673185446086 0.65370280491038268 -0.12547383131523246
 0.79387516523857815 0.59606703407609041 -0.1202759864027441
 0.83797581364844287 0.53366919443494021 -0.11399002873669291
 0.87775482133341565 0.46711690692426322 -0.10652825395852891
 0.91247525919619599 0.39726496230365432 -0.097823571191770084
 0.94154709960483651 0.32520863757904028 -0.087911326174188661
 0.96461081385213898 0.25222157794916994 -0.076878172561169703
 0.98158435431921121 0.17966008212152401 -0.06491848926018369
 0.99268132577181678 0.10886593469282585 -0.052268477377529911
 0.99838741724169211 0.041034295089528612 -0.039226925956144985
 0.99939854601093403 -0.022845143039934131 -0.026089186854248065
 0.99653940239560623 -0.082075036967512963 -0.01314944028426334
 0.99067791517505666 -0.13622347170779567 -0.00065889322257406456
 0.98264860022847245 -0.18514001425117529 0.011176027563420227
 0.97320241010823239 -0.22887568765550761 0.02220334568812907
 0.96297042750785133 -0.26766183669604388 0.032327958825858046
 0.95245833902081556 -0.30182992579158652 0.041494678289566059
 0.94204531425425042 -0.33178437140555178 0.0496966475995472
 0.93200224509367247 -0.3579507661739546 0.056947907212055816
 0.92250632144618594 -0.38075658567374898 0.063296993276896071
 0.91366156142137067 -0.40061095283741799 0.068799823021277101
 0.90551680585303251 -0.41789048240112681 0.073531347303548655
 0.89807969272349919 -0.43293953840438104 0.077564306248859738
 0.89133315242834543 -0.44605790559194075 0.080978739438690342
 0.88524178673572451 -0.45751089166272901 0.083849645359517472
 0.87976247290846543 -0.46752392552044081 0.086251784491330835
 0.87484678267361038 -0.47629227432078292 0.088254043918501224
 0.87044683002939405 -0.48398055262825906 0.089917410824735547
 0.86651597536574998 -0.49072896682250827 0.091297018337163957
 0.86301211366998321 -0.49665409013325185 0.092438122075146997
 0.85989644882424254 -0.50185468733465699 0.093380780140724914
 0.85713422115914895 -0.50641389745732979 0.094158862461141662
 0.85469344028196381 -0.51040377626620426 0.094800360295622485
 0.85254453318154755 -0.51388749666179057 0.095328168538662217
 0.85066083623162647 -0.516920047802228 0.095759103388933106
 0.84901808448140825 -0.51954950762793461 0.096107238786114005
 0.8475946243802428 -0.52181762039158364 0.096383213116084498
 0.84637015391534498 -0.52376185631083816 0.09659751774833765
 0.84532597654914599 -0.52541558263832366 0.096759799979453692
 0.84444414006570245 -0.52681000279805645 0.096877836787409771
 0.8437075510907257 -0.52797412354956985 0.096958202822423512
 0.84310147772378918 -0.5289327960183744 0.09700513159698225
 0.8426123731828622 -0.52970871956147858 0.097020930626767449
 0.84222836797066547 -0.53032136388157003 0.097008387246984781
 0.84193879296994834 -0.53078794624484116 0.09697022745920543
 0.84173221118970931 -0.53112665351729882 0.096909042762776315
 0.84159739835740976 -0.53135508767231832 0.096827629748860569
 0.84152320856112361 -0.53149095975928895 0.096726672366734393
 0.84149885030177862 -0.53155122074396544 0.09660737376817978
 0.84151505736483023 -0.53155048482692657 0.096470152423046143
 0.84156376727355997 -0.53150106892978122 0.096317388559041081
 0.84163833928127807 -0.53141258818091719 0.096153871345419223
 0.84173315124171932 -0.53129281411951335 0.095985664375744115
 0.84184283619480249 -0.53114899437929908 0.095819543504183799
 0.84196362761218202 -0.5309860513594945 0.095661188785145221
 0.84209287799858334 -0.5308078242022487 0.095512504886729452
 0.84222878503740417 -0.53061712021358931 0.09537371435912273
 0.84237132649549396 -0.53041447222528304 0.095241986288592179
 0.84252075351956057 -0.53020023673599559 0.095113031987871979
 0.8426764147295398 -0.52997591672150279 0.09498414474938302
 0.8428364316890985 -0.52974474701546281 0.094853847719061232
 0.84299734462072007 -0.52951238168095183 0.094721246871972573
 0.84315418346726556 -0.52928646967354143 0.094587821214827728
 0.84330241380234883 -0.52907392648703355 0.094455381989197271
 0.84343811269711433 -0.52888077476878781 0.09432537373314076
 0.84356000398627429 -0.52870872021929471 0.094199834600452934
 0.84366910449926802 -0.52855595421825707 0.094079994546294676
 0.84376805717025971 -0.52841812887383288 0.093966732286500057
 0.84386032632342711 -0.52828961796558438 0.093860690425205312
 0.84394899645944221 -0.52816560620305542 0.093761312913478972
 0.84403476075507289 -0.52804535046373802 0.093666592180750893
 0.84411691285322754 -0.52793032366082404 0.093574626873497324
 0.8441933062093081 -0.52782448704185669 0.093482472316463588
 0.84426091776043199 -0.52773312375687209 0.093387648177513993
 0.84431777300847877 -0.52765967898841526 0.093288591756149897
 0.84436430209987379 -0.52760341204873851 0.093185647682045722
 0.84440258291193371 -0.52756094089695349 0.093079168515711588
 0.84443638468936222 -0.52752599655448662 0.092970507000636041
 0.84447097353704648 -0.52749007874046194 0.092860065064450714
 0.84451035168318944 -0.52744682540689514 0.092747572842226358
 0.84455696177590311 -0.52739266677158292 0.092631060403161006
 0.84461161668957274 -0.52732665391283218 0.092508470023681705
 0.84467355454015691 -0.52725044588539671 0.092377235151020698
 0.84474133804501439 -0.52716660233953172 0.092235812869584322
 0.84481513460432156 -0.52707503184349336 0.09208311001841013
 0.84489680920726362 -0.52697292610784086 0.091917990299641567
 0.84499083279850051 -0.52685344846806093 0.091738412477047115
 0.84510320291232066 -0.52670736976565835 0.0915419196973664
 0.84524086796395259 -0.52652418849746929 0.091324443883471593
 0.84540985228615217 -0.52629498842614952 0.091081100207593607
 0.84561485293595007 -0.52601251988458864 0.090809412611120952
 0.84585881078455893 -0.52567202731291007 0.090508518487858666
 0.84614441853970734 -0.5252688963575749 0.090178764093304387
 0.84647419707150917 -0.52479840414785772 0.089822428691311032
 0.84685158107915204 -0.52425437817967813 0.08944130244567855
 0.84728155167060248 -0.52362869758803676 0.089033472699386842
 0.84776991695009052 -0.52291214149823584 0.088594921909584623
 0.84832229355389721 -0.52209615090138595 0.088118644300809901
 0.84894451247347491 -0.52117170498875265 0.087597195504712483
 0.84964248372542595 -0.52012930253257617 0.087023896119774
 0.85042260718429497 -0.51895798526900727 0.086394436831310303
 0.85129255303656171 -0.51764409908118636 0.085706334835411249
 0.85226135079212251 -0.51617125470976977 0.084957788091077624
 0.8533391632182683 -0.51452089477992813 0.084145833841062889
 0.85453540760648428 -0.51267510505951996 0.083267483443598675
 0.85585874361735015 -0.51061674793550904 0.082318574462242083
 0.85731671761701178 -0.50832952488022443 0.081296616346794678
 0.8589159108323362 -0.50579763773736031 0.080201045992956688
 0.86066248113270638 -0.50300498764997048 0.079032119861149525
 0.86256364421669363 -0.49993255067010978 0.07779077359234382
 0.8646259922179319 -0.49656134060156737 0.076476980857843407
 0.86685601804343015 -0.49287163731922951 0.075087902541956256
 0.86925885842785766 -0.48884464135738409 0.073620334560965478
 0.87183845247417457 -0.48446198256079115 0.072071493953601948
 0.87459803109626133 -0.47970475190130313 0.07043887425173842
 0.87754099884600434 -0.474551609716582 0.068720921557835199
 0.88067100857499614 -0.46897861412257424 0.066915126475026565
 0.88399118755221751 -0.46296041439218527 0.065017190310226652
 0.88750410111399891 -0.45646991519973873 0.063021321974203307
 0.89121093786931427 -0.44947924820018542 0.060921832371436488
 0.8951114870802418 -0.4419593767821503 0.058714010008953085
 0.89920531853651764 -0.43387743233689186 0.056392985595601561
 0.90349078673448968 -0.42519772378022852 0.053956408127353084
 0.90796552974704725 -0.41588076626721993 0.051398298027794463
 0.91262455377725848 -0.40588588600017789 0.048714180571066822
 0.91746091325335011 -0.39516922950146777 0.045899375894940662
 0.92246362689285233 -0.38368758114516244 0.042949937539639098
 0.92762038738211416 -0.37139091596023843 0.039864827295144768
 0.93291396824255923 -0.35823034602887249 0.03664078386109329
 0.93832451193599797 -0.34415073436463622 0.033277354707863256
 0.94382638317774536 -0.3290981293387848 0.029768770268996377
 0.94938850549094356 -0.31301659611171795 0.026116588603916694
 0.9549746625839014 -0.29584699664083497 0.022314757479334459
 0.96054109285885314 -0.27753101212153697 0.01836698778557368
 0.96603886449110188 -0.25800261774200944 0.014267499115578154
 0.97140843259812237 -0.23720307631109863 0.010017867328450052
 0.97658418468714836 -0.21506232275991788 0.0056149397188848607
 0.98148717494033555 -0.19152494021044358 0.0010595777579958106
 0.98603161270671813 -0.16651838586498799 -0.0036449844865927409
 0.99011634194031173 -0.13999066419561018 -0.0084996094503080877
 0.99363071195302699 -0.11187438961788125 -0.013495525604705726
 0.99644771850428382 -0.082125919785771981 -0.018635385344788084
 0.9984282336663608 -0.050692730542976988 -0.023902077063884201
 0.9994167199826296 -0.017542528391148959 -0.029299821105391661
 0.99924344384926311 0.017352974670501745 -0.034805375940354356
 0.9977219741672182 0.054006390057865429 -0.040424894517940013
 0.99465180192446556 0.092410553874706147 -0.046131144154289212
 0.98981511104963871 0.13254937401639366 -0.051929850622293168
 0.98298270621461115 0.17436989765674979 -0.057793927658311428
 0.97390730908151024 0.21781516324169106 -0.063726823077940267
 0.96233643834236282 0.26277356900209242 -0.069703879895155529
 0.9479999037035064 0.30913156183095541 -0.075722256028838975
 0.93063299797254584 0.3567040652380023 -0.081758381388787937
 0.90995803576818179 0.40529991966564627 -0.087797199613272703
 0.88572086940127259 0.45464085014865457 -0.093809588439361255
 0.85766905108954838 0.50443235151452503 -0.099758716655139815
 0.825603492706943 0.55428137028807134 -0.10559846297022875
 0.78935809447213057 0.60376747962856947 -0.11125928830570608
 0.7488655763457196 0.65237196244046647 -0.11666692413005432
 0.70414169751637445 0.69955006951220999 -0.12171347527788813
 0.65535799741953427 0.74468472955880427 -0.12629548202603424
 0.6028261125515616 0.78716472072192889 -0.13027808901246443
 0.54706098069813891 0.82637077783092638 -0.13355006905539257
 0.48875120464598276 0.86175960990170131 -0.13598762700763742
 0.42879157249191041 0.89287499385106994 -0.13752102644820005
 0.36822613774719032 0.91942265211731977 -0.13809959541338701
 0.30824156708927897 0.94128061290807585 -0.13776045906479353
 0.25009049540316164 0.95853904121620126 -0.13659301070452615
 0.19506826160519575 0.97148223519903776 -0.13479851633830525
 0.14445911053753985 0.98057878673575605 -0.13265296222299491
 0.099562566681717216 0.98643030833605971 -0.13054708771847451
 0.061775874456191426 0.98972689174581774 -0.12893572464734224
 0.032909377040071387 0.99118846149147799 -0.12830591065493127
 0.01592716373743646 0.99153045666458839 -0.12889406100280187
 -0.052654861086363317 0.99317731009621668 -0.10404948973454638
 -0.056362920600651463 0.9930571114052118 -0.10325112429848672
 -0.060535092059324259 0.99277537619861211 -0.10359804555624398
 -0.063216855722914522 0.9924551194321074 -0.10505458136373502
 -0.063274259464822569 0.99221054808612696 -0.10730608722624309
 -0.060055120177114826 0.99210833301020696 -0.11006560821719348
 -0.053214295305373104 0.99216085746497396 -0.11307109130772744
 -0.042548555240896423 0.99231992965461635 -0.11614980696139653
 -0.027989988101108094 0.99248283086476097 -0.119140215732431
 -0.0095054378269116349 0.99248940382706008 -0.12196077214713538
 0.012843902786328291 0.99213433436708354 -0.12451705397735427
 0.039001567620778929 0.99116327224191192 -0.12678424776693487
 0.068822197082639328 0.98929111942067605 -0.12871125135008235
 0.10218550478753742 0.98619380834172476 -0.1303069261388734
 0.13887881664985291 0.98153315384018791 -0.1315497708035655
 0.17872882740821142 0.97494027716049458 -0.13246683442848553
 0.22146562156184371 0.96604819046954904 -0.13305589861684539
 0.26686820695167257 0.95446314066316285 -0.13334719057336966
 0.31461508763320423 0.93980653490953803 -0.13334550451694566
 0.36443439664600685 0.92167300289440934 -0.1330655713430898
 0.41594680331018269 0.89968416880321855 -0.13250152157957323
 0.46880801289706436 0.87343714528754324 -0.13163054461428428
 0.52255243901965354 0.84257398698323505 -0.13041481868939023
 0.5767169850097954 0.80673098618110317 -0.12877358089482666
 0.63069904892175332 0.76562769541889364 -0.12662125294258289
 0.68385914152065541 0.71903193462299819 -0.12381337387754515
 0.73541478239748026 0.66686705570608851 -0.12022240991245928
 0.78453475598448219 0.60920127807233637 -0.11566771134331759
 0.83029700717550758 0.54635278252304909 -0.11002507398187469
 0.87179492172568074 0.47888794862628958 -0.10315011931073342
 0.90817158456528269 0.40767438470401934 -0.095005100096693856
 0.93873564007565891 0.33384484099068679 -0.085574646920954581
 0.96303153679152009 0.25874362609086737 -0.074979964672655025
 0.98091145397220603 0.18383562216866442 -0.063381255020650784
 0.99255741257540731 0.11055986226797103 -0.05105193039347302
 0.99845668029967516 0.040240625980707469 -0.038274659836938819
 0.99933824955548667 -0.026060346701938603 -0.02537560452778553
 0.9960799510151982 -0.08754903325246334 -0.012645076596040623
 0.98961073482941353 -0.14377228877475345 -0.00034998693836742033
 0.98083084015141908 -0.19453321238109858 0.011300101262900063
 0.97054469850436065 -0.23990035826643233 0.022154148792430894
 0.95943457983681979 -0.28009699751969586 0.032108550166532294
 0.94803887418437782 -0.31548597270329354 0.041120482276769517
 0.93676651999654614 -0.34648339129919709 0.049170586404556217
 0.92590360794044335 -0.37354262046789571 0.056288715537373621
 0.91563947992232486 -0.39711049469393467 0.062510781562167231
 0.9060836162846756 -0.41761387315678133 0.067905325619397619
 0.89728542622029228 -0.43545058837604966 0.072537224758194227
 0.88925400208908634 -0.45097351974517585 0.076486627963264733
 0.88196714485561134 -0.46450146145103322 0.079826986070472769
 0.87538885588906101 -0.4763041629257046 0.082635920548419992
 0.86946976046942037 -0.48662081147755326 0.084985419138675106
 0.8641593668141595 -0.49565057353786013 0.086943071598265767
 0.85940420865918499 -0.50356699378750525 0.088570248428548257
 0.85515517538577768 -0.51051364477790284 0.089919099786982412
 0.85136587077782211 -0.5166126884360086 0.091035620619843369
 0.84799481944693722 -0.52196590156315281 0.091958598274014022
 0.84500460658826426 -0.52665925622685206 0.092721317264110342
 0.8423602796293681 -0.53076795770696039 0.093351670442017601
 0.84003054126221188 -0.53435642891248769 0.093871703013255176
 0.83798647760629341 -0.53748162135105193 0.094298303584112939
 0.836202152066717 -0.54019296865225364 0.094644162512310004
 0.83465425805291615 -0.54253325493781412 0.094920686895518039
 0.83332137492940506 -0.54454057853800808 0.095136977097538239
 0.83218308306834754 -0.54624965216337296 0.095302852875733784