# OOMMF OVF 2.0
#
# Segment count: 1
#
# Begin: Segment
# Begin: Header
#
# Title: Oxs_TimeDriver::Spin
# Desc: Oxs vector field output
# Desc:  MIF source file: /home/debasis/Downloads/STD_Prob_4/stdprob4.mif
# Desc:  Iteration: 250, State id: 1786
# Desc:  Stage: 0, Stage iteration: 250
# Desc:  Stage simulation time: 1.17158e-10 s
# Desc:  Total simulation time: 1.17158e-10 s
# meshunit: m
# meshtype: rectangular
# xbase: 1.25e-09
# ybase: 1.25e-09
# zbase: 1.5e-09
# xnodes: 200
# ynodes: 50
# znodes: 1
# xstepsize: 2.5000000000000001e-09
# ystepsize: 2.5000000000000001e-09
# zstepsize: 3e-09
# xmin: 0
# ymin: 0
# zmin: 0
# xmax: 4.9999999999999998e-07
# ymax: 1.2499999999999999e-07
# zmax: 3e-09
# valuedim: 3
# valuelabels: Spin_x Spin_y Spin_z
# valueunits: {} {} {}
#
# End: Header
#
# Begin: Data Text
 -0.37974538177453337 0.9122141469120737 -0.15381415797770925
 -0.39917294902270994 0.90432524708329876 -0.15118466938232772
 -0.42039659171902921 0.89497884562164109 -0.14926343008513027
 -0.43946003922666038 0.88590240833708023 -0.14849847415196951
 -0.45489927218378007 0.87802721211822088 -0.14877791148746544
 -0.46605479388579263 0.87196926571846334 -0.14987504374803509
 -0.47259626789631165 0.86814765764205748 -0.15156652698101486
 -0.47434772220152988 0.86682320171269878 -0.15366123588845085
 -0.47119121785826068 0.86812551387061077 -0.15600297554898429
 -0.46303413535772225 0.87206003067606774 -0.15846353647064201
 -0.44977495394755251 0.87852322287284379 -0.16093302232478196
 -0.43130950584706695 0.88729993719691336 -0.1633123743514629
 -0.40751790207611205 0.8980739355752464 -0.16550639180367885
 -0.37828993385426396 0.91042070994846547 -0.16742418236762802
 -0.3435232545130506 0.92381767891629762 -0.1689753524348043
 -0.30316105551461481 0.93763931884157403 -0.17007610702733575
 -0.25719541063826123 0.95117340628288549 -0.17064487078968762
 -0.20570735969628601 0.96362614615130227 -0.17061398717682028
 -0.1488663011311204 0.97414798020703175 -0.16992509245576229
 -0.086963414407213557 0.98185014875742016 -0.16854569095551247
 -0.020401178787911072 0.98583706862252363 -0.16646040380166427
 0.050287568407540527 0.98522974793731988 -0.16368721465961261
 0.12446488385062907 0.97919631758616021 -0.16025936575986152
 0.20138680415446261 0.96697113149279734 -0.15623759461791362
 0.28023685156438249 0.94787103847053 -0.15168322733275819
 0.36012976747588732 0.92130082344803288 -0.146667458189401
 0.44013183599842837 0.88675569845300362 -0.14123844448937489
 0.51925026564794385 0.84382353872151195 -0.13542893754307106
 0.59642726989609973 0.79219696075707613 -0.12922262608203222
 0.67051595281063725 0.7317005411245282 -0.12256702307111772
 0.74026540528831664 0.66234501665290479 -0.1153525407105872
 0.80431964472158191 0.58440227891545471 -0.10744247536878326
 0.86125227261527015 0.49850528022192125 -0.098676281374483074
 0.90965615126509525 0.40573305540689708 -0.088917794708133782
 0.94828540726269583 0.30766736429161057 -0.078074191141993224
 0.976240036973824 0.20635193988078182 -0.066138242468217354
 0.99313641834667699 0.10416635124984204 -0.05319234738972161
 0.99921660656555511 0.0035870435080157959 -0.039412006831527686
 0.99534501999418634 -0.093066981810741745 -0.025036534692562746
 0.98289413401184933 -0.18388112231227804 -0.010337029663971401
 0.96355387165558337 -0.26747785231739585 0.0044198345228160995
 0.93911962855229969 -0.34306454650549073 0.019001057832994321
 0.91131475082934554 -0.41036808017382248 0.033218424033948098
 0.88166540525326842 -0.46953496741518275 0.046936420336594016
 0.85144062833630718 -0.52100077341205697 0.0600587256134609
 0.82163592187366874 -0.56537999199700584 0.072525006282469148
 0.79299123729187748 -0.60337376515844798 0.084291144830376558
 0.76602422996043718 -0.63570388889935636 0.095328090045663533
 0.74106793336416987 -0.66307237079286019 0.10560941828499043
 0.71830991896490382 -0.68613344052245362 0.11511629820947988
 0.69782169646243175 -0.70548570538045696 0.12383375731250695
 0.67958890047041332 -0.72166422694860111 0.13175610004888827
 0.66352925923429562 -0.73514580233258331 0.13888690166019663
 0.64951430958738687 -0.74634879390364472 0.145239937619771
 0.63738194900716838 -0.75563994255581146 0.15083941227037892
 0.62695330553186257 -0.76333585661926207 0.15571744501502796
 0.61804238135710876 -0.76970805358876604 0.15991600009701248
 0.61046730118272519 -0.77498573390336145 0.16348329099008269
 0.60405596789721094 -0.77936007614792735 0.16647600233805684
 0.59865066082156582 -0.7829886794762595 0.16895595316509546
 0.59410959881551362 -0.78600036946376095 0.17098889963415964
 0.59030726185184734 -0.78850013693737342 0.17264087191252797
 0.58713490096082155 -0.79057290334996777 0.1739744020323932
 0.58449937458045864 -0.79228752614867415 0.17504558556063754
 0.58232382155382689 -0.79369862531977453 0.17590184483525764
 0.58054576798382906 -0.79484932971713862 0.17658186295393302
 0.57911600885982628 -0.79577287665802332 0.17711628117618153
 0.57799598910318861 -0.79649473172596352 0.17752965643354349
 0.57715432096116082 -0.79703511942262872 0.17784236897549868
 0.57656400994543289 -0.79741109253444442 0.17807159217198779
 0.57619968211900296 -0.7976386850847843 0.17823146294124451
 0.57603634819641925 -0.79773385122787355 0.1783334745965508
 0.57604907289925977 -0.79771308871166025 0.17838523960800734
 0.57621368148419483 -0.79759292385534009 0.17839092209616589
 0.57650816386002246 -0.79738875010981569 0.17835223071509795
 0.57691305821835326 -0.79711447979139882 0.17826898037525907
 0.57741223782955742 -0.79678146447716425 0.17814153213186484
 0.57799223713291092 -0.79639876887832051 0.17797183693828711
 0.57864116318018022 -0.79597383558747936 0.17776404960971248
 0.57934773300614795 -0.79551319042572421 0.17752455638396192
 0.58010039045886408 -0.79502336389711092 0.1772607904957986
 0.58088680969581274 -0.79451163120593404 0.17697960955970821
 0.58169458488992176 -0.7939857705359642 0.17668617969765743
 0.58251182223703379 -0.79345390835027874 0.17638274370742155
 0.58332829940245712 -0.79292360588175437 0.17606887956624667
 0.58413624593889879 -0.79240108358390515 0.17574233671902589
 0.58493054842004411 -0.79189079119485895 0.17540019482830349
 0.58570875164894853 -0.79139500413071318 0.17504058294800964
 0.58647029176965992 -0.79091405473460108 0.17466412022760294
 0.58721542673233695 -0.7904471895088554 0.17427358722741468
 0.5879447434527092 -0.78999280783409143 0.17387450134144491
 0.58865864357097719 -0.78954923141757793 0.17347337696917423
 0.58935668034521549 -0.78911554923860028 0.17307614879679384
 0.59003880889548455 -0.78869094095109848 0.17268701068368975
 0.59070515485068031 -0.78827519470718199 0.17230681194366171
 0.59135683022226104 -0.78786819288784593 0.17193257395013933
 0.59199653412590625 -0.78746928549151785 0.17155823498274062
 0.59262833879725563 -0.78707733634523624 0.17117511111751357
 0.59325757250766908 -0.78669038268316849 0.17077381080282156
 0.59389044972617833 -0.78630551639483515 0.17034602610888686
 0.5945332841815143 -0.78591926376339505 0.16988550510842881
 0.59519230570775494 -0.7855274253467377 0.16938944257069838
 0.59587319108573367 -0.78512548525864567 0.16885826169507093
 0.5965814168885103 -0.78470847371408325 0.16829505133726161
 0.59732225115127136 -0.78427127088652859 0.1677042096716912
 0.59810149013216229 -0.7838083869737632 0.16708985609926968
 0.59892577834215066 -0.78331408855057438 0.16645404986191242
 0.59980251564314746 -0.78278267123274803 0.16579575340121172
 0.60074040199434653 -0.78220821161994114 0.16510991213735332
 0.60174887969179724 -0.78158478045464319 0.16438831087195444
 0.60283773965481957 -0.78090668024982546 0.16361973105058217
 0.60401745099840876 -0.78016764839524666 0.162792380923726
 0.60529883591263134 -0.7793608497169755 0.1618949819211436
 0.60669326753397623 -0.77847840467142038 0.16091815493966954
 0.60821354588854348 -0.77751040605393518 0.15985571955838698
 0.60987395688861279 -0.77644493983614427 0.15870416538916912
 0.61169071374802297 -0.7752678365408584 0.15746190758304382
 0.61368157244983523 -0.77396301604516993 0.15612872070750469
 0.61586553435713509 -0.77251310709742171 0.15470340317422882
 0.61826149190278901 -0.77090045131813756 0.15318362114674547
 0.62088731258088103 -0.76910789537049173 0.15156513568385049
 0.62375898984742228 -0.76711932892082491 0.14984210950392679
 0.6268902612834768 -0.76491970441371859 0.1480082636462024
 0.63029275709784816 -0.76249472774708238 0.14605762735268499
 0.63397711161475268 -0.75982967788510303 0.14398570260145971
 0.63795392454688671 -0.75690853825900584 0.14178947374837136
 0.64223490577801778 -0.75371294899728614 0.13946725893239312
 0.64683315035938782 -0.75022202725349496 0.13701746392269182
 0.65176337522435479 -0.74641205244129494 0.13443790643464626
 0.65704040108785322 -0.74225769821497534 0.1317247918158142
 0.66267831488635431 -0.73773251352327285 0.1288727646557489
 0.66868914926698242 -0.73280969927997575 0.12587599570128899
 0.67508205801485266 -0.72746259305742367 0.12272893158746383
 0.68186356689907757 -0.7216640917130519 0.11942786470352383
 0.68903788692788159 -0.71538613683927599 0.11597183104589028
 0.69660820914175303 -0.7085984743722793 0.11236193783304878
 0.70457682776112174 -0.70126838891053989 0.10860083101381057
 0.71294532948432254 -0.69336047104602938 0.1046910423929337
 0.72171423483005803 -0.68483673961517455 0.10063400676173877
 0.73088110414586416 -0.67565836901269316 0.096429144897328525
 0.74044053294795042 -0.66578527751878802 0.092074868487473469
 0.75038254996429632 -0.65517756428099128 0.087569332371030706
 0.76069365547168233 -0.64379401985503093 0.082912137374630698
 0.77135687687104681 -0.63159184742581431 0.078104460621603575
 0.78235258967125432 -0.61852522256793152 0.07315035530995595
 0.79365896692627214 -0.60454453819931686 0.068053989970442805
 0.80525081871414683 -0.58959698862809429 0.06282125405369661
 0.81709935113571075 -0.57362654071332431 0.057456437088154844
 0.82916919136524547 -0.55657709297858304 0.051965292861818606
 0.8414192042451587 -0.5383911282278433 0.046354242232983976
 0.85379946000931684 -0.51901390106667589 0.040633146412134759
 0.8662539164969898 -0.49838939627665446 0.034816114553728059
 0.8787177366841723 -0.47646484650607995 0.028920395581378856
 0.89111988261769715 -0.45318628195144245 0.022968427339486057
 0.90338041991261031 -0.42850374267680585 0.016981149268691813
 0.91541116032548586 -0.40237017729236108 0.010983987311598902
 0.92711436291257288 -0.37474522069391891 0.0049977643282014565
 0.93838244085366107 -0.34559729436997194 -0.00095122115209054592
 0.94909960602087606 -0.31490179088743453 -0.0068410486699319872
 0.95914080981939798 -0.28264647510277041 -0.012644249719481805
 0.96837554957742322 -0.24882223507258441 -0.018338220036498723
 0.97666499616530145 -0.21343449164277173 -0.02389985444774477
 0.98386599547742715 -0.17648927298721981 -0.029312786692058109
 0.98982741420206855 -0.13801025283253782 -0.034566750022900175
 0.99439385002289349 -0.098021605446384844 -0.039656473650089487
 0.99740282168300509 -0.056564837083927247 -0.04458733569578105
 0.99868709938000366 -0.013680032627884572 -0.049365314131023089
 0.99807187865031777 0.030581516473316889 -0.054011997719188964
 0.99537433423495481 0.076171636733206372 -0.058547557623736472
 0.99039966507265031 0.12303604531750861 -0.063012974668793492
 0.98293917329329217 0.17111890960516696 -0.067445536405591699
 0.97276518172324289 0.22035857578469656 -0.071902707216673009
 0.95962997718842513 0.27068135915802438 -0.07643237982496133
 0.94325889509252314 0.32200332220846728 -0.081095729329864155
 0.92335291582557744 0.37421123223655217 -0.085938038751214432
 0.89958172785073354 0.42716524218208124 -0.09100863029742208
 0.87159680541996931 0.48066491381140597 -0.096334051157302966
 0.8390311799574186 0.53445003095929144 -0.10193058160765218
 0.8015315372902142 0.58815874657234546 -0.10777979198176869
 0.75877177138389196 0.64133237145843347 -0.11383403827701508
 0.71050992091271636 0.69337986821588116 -0.12000004432304544
 0.65661967570868307 0.74359835772863281 -0.12614310863263284
 0.59716944005686368 0.79116518338269703 -0.13208448987369925
 0.53246055557218386 0.83519421666540372 -0.13760950987640355
 0.46309952742455723 0.87477866151582195 -0.14248200256782911
 0.38999977407427538 0.90909268487898853 -0.14646046060806378
 0.31439325384884093 0.93747408810968225 -0.14932922037316748
 0.23775146762764687 0.9595300935598321 -0.1509179883047746
 0.16171359985744832 0.97519578159796338 -0.15113536705444661
 0.087942080553253532 0.98477104721371966 -0.14997391452369044
 0.018017702542773968 0.98889412483577077 -0.14752549698399678
 -0.046690250919573496 0.98848109082258229 -0.143962333807372
 -0.10507701135207283 0.98462605208997811 -0.13953622909846819
 -0.1563494797138795 0.97849418304198621 -0.13455100871489328
 -0.19999852664755199 0.97121900680229878 -0.12936085252024507
 -0.23577420336252328 0.96381957684655029 -0.12434769123753124
 -0.26362222111672046 0.95714264335389687 -0.11992199467571392
 -0.28365012781414561 0.95182521545357746 -0.1164961982974978
 -0.2960899910638542 0.94827986581596369 -0.11443781402956196
 -0.30128564781372508 0.94670964509909128 -0.11387627627305252
 -0.37116379337524691 0.91732160649887284 -0.14407813414125009
 -0.38792967664845135 0.91074220293860209 -0.14163052553023364
 -0.40759519360137703 0.90237374785330471 -0.13995634082897596
 -0.42575786531941212 0.89403331340576297 -0.13940830190261302
 -0.44067812628616637 0.88670508678633664 -0.13984590834253513
 -0.45155634585927112 0.88102499084217434 -0.14103840620826982
 -0.45800043865843176 0.87741309447101257 -0.1427650511837063
 -0.45978402030522852 0.87613912893747692 -0.14484088309811008
 -0.45677775058048653 0.87733170615378619 -0.14711615802459488
 -0.44886616343437735 0.88100973053710241 -0.14946913401316411
 -0.43596172108228876 0.88707085051601453 -0.15179816835444129
 -0.41795307147077604 0.89531891527360208 -0.15401061652186498
 -0.39475085685962114 0.90544382234549348 -0.15602322130047627
 -0.36624604471999511 0.91704863989382501 -0.1577517885662319
 -0.3323742769506593 0.92962747137981827 -0.15912292253943741
 -0.29307866879970051 0.9425953029618086 -0.16005932877821211
 -0.24838386321398481 0.95527208365107774 -0.16050141024871101
 -0.19835631705954612 0.96691834611377547 -0.16038604500134604
 -0.14317664551468534 0.97673066407535902 -0.15967986107856699
 -0.083093215313424465 0.98388056363242415 -0.15834946818736217
 -0.018484668104035842 0.98752023296224833 -0.15640366535113742
 0.050194339202001163 0.98681843899582788 -0.15385024137099049
 0.12236784429291757 0.980970441016076 -0.15074184732790583
 0.19739788709749093 0.9692215300109136 -0.14711797963794213
 0.27455370560114356 0.95087118760180933 -0.14305330240649994
 0.35305852083883504 0.92527991899889706 -0.13858842794580106
 0.43205791185380898 0.89186822024917034 -0.13377981355235818
 0.51063411584358676 0.85012266160875904 -0.12862449205294388
 0.58776472956306025 0.7996099854215597 -0.12311171307310967
 0.66230662753522851 0.74001705155404274 -0.11715244142643191
 0.73296467724656467 0.67120893592324726 -0.11064061752187303
 0.79828829053216666 0.59333228060883714 -0.10340507718070339
 0.85671164702767377 0.50691759333008324 -0.095287498758058989
 0.90664589829090891 0.41300835177934653 -0.086123843810981884
 0.94665371618880367 0.31320458867930578 -0.075826296600552692
 0.97565234503998488 0.20966241573060895 -0.064375251828505869
 0.99312761838836117 0.10491554551050225 -0.051867734715288077
 0.99925775213048784 0.0016528295042204603 -0.038486529614327601
 0.99492220550267274 -0.097621628975445005 -0.024491275056193067
 0.98157250541292296 -0.19081925262037661 -0.010170026882872742
 0.96101382408015701 -0.27646845383872515 0.0041980899058570408
 0.93517093593916056 -0.35372016664578765 0.018367478943792773
 0.9058796456706556 -0.42231301740140198 0.032152494350060186
 0.8747594884349823 -0.48242464383318162 0.045412557904131352
 0.84314028656538897 -0.53454927653702455 0.058064861355018017
 0.81205590316810206 -0.57936037250359107 0.070048332616403974
 0.78226324660189772 -0.61761539174456581 0.081335360674585702
 0.75428168301522158 -0.65008760266617516 0.091898049639096993
 0.72843985499060959 -0.67751570305176056 0.10172438144092334
 0.70491086325995145 -0.70058873341949091 0.1107975697557657
 0.683756442629599 -0.71992329124938115 0.11911163620391894
 0.66494457376428062 -0.7360740608093691 0.12666369181831272
 0.64838394866264637 -0.74952424978254784 0.13346030909803755
 0.63393154631953352 -0.76070081075785823 0.13951727883406542
 0.62141867660381611 -0.76997093432224228 0.14485713191588084
 0.61065620839797929 -0.77765333927841529 0.14951347449020694
 0.60145316277616112 -0.78401829519874278 0.15352330696089653
 0.59362125806219745 -0.78929412595333992 0.15693496969193016
 0.58698429199404345 -0.7936708437699872 0.15979997716422981
 0.58138042951887536 -0.79730488868703642 0.16217802147085308
 0.57666418593605284 -0.8003246490796927 0.16413065750851144
 0.5727077786638568 -0.80283405967123789 0.16572046611601687
 0.56939899251586001 -0.80491831637317357 0.16700686000550852
 0.56664341499190518 -0.80664541853079608 0.16804287848519012
 0.56436136550142635 -0.80807043525326983 0.16887397904637796
 0.56248910201432967 -0.8092362785004299 0.16953659095867091
 0.56097587148144712 -0.81017621693147379 0.1700604866929307
 0.55978140550568123 -0.81091616380927278 0.17046921517663244
 0.55887349123065932 -0.81147633399047348 0.17078225953838314
 0.55822402868431198 -0.81187403356237986 0.17101604435434731
 0.55780706842636141 -0.81212505473843333 0.17118460760151644
 0.55759702008137557 -0.81224534677200011 0.17129816065446665
 0.55756857316063546 -0.81225095106462897 0.17136416987870851
 0.557697554734919 -0.81215765674906482 0.17138663316186686
 0.55796118234386582 -0.81198084845683394 0.17136633489911413
 0.55834007626684745 -0.81173360899322067 0.17130355298467143
 0.55881753208683171 -0.81142722109550924 0.17119822048608521
 0.55937953862384637 -0.81107073293756149 0.17105203284702511
 0.5600138200839615 -0.81067150725047632 0.17086903946358836
 0.56070880305048065 -0.81023602442082754 0.17065527507941111
 0.56145222086612101 -0.80977110703326682 0.17041759855900446
 0.56223182422357754 -0.80928364013083864 0.17016276222137314
 0.56303482924225812 -0.80878141098903811 0.16989529216173732
 0.56384924447512585 -0.80827216678082048 0.16961761085532157
 0.56466472371232979 -0.8077631974340912 0.16932916661323219
 0.56547319541525887 -0.80726062284768563 0.16902766657095855
 0.5662696379557024 -0.8067685129675507 0.16871059129066235
 0.56705114371827314 -0.80628928705761549 0.16837632251572821
 0.56781681282874019 -0.80582361754870513 0.16802489241100457
 0.56856698217338497 -0.80537058491514246 0.16765979761317612
 0.56930194291137171 -0.80492904795109432 0.16728576018861349
 0.5700214798744716 -0.80449790670244226 0.16690904886526059
 0.57072583830994617 -0.80407581768565051 0.16653557247195461
 0.57141432150550464 -0.80366255940863296 0.16616908191107455
 0.57208715755984252 -0.80325787123868775 0.16581036290953485
 0.57274563789356103 -0.80286138817744312 0.16545702054517664
 0.57339237813236599 -0.80247256891149776 0.16510286746235278
 0.57403130961778381 -0.80209025792963073 0.16474001855308434
 0.57466805545784239 -0.80171222827687139 0.16435975501209496
 0.57530850827069135 -0.80133592352345484 0.1639538288121502
 0.57595917820771203 -0.8009577387829101 0.16351674446999176
 0.57662613997501988 -0.80057380970490333 0.16304560684693703
 0.57731513547641833 -0.8001797871385623 0.16254089517635206
 0.57803147866563565 -0.79977113619636087 0.16200536836414092
 0.57878069370991336 -0.79934281153634745 0.16144342115378621
 0.5795684726517828 -0.798889770837512 0.16085869438506453
 0.58040135986235386 -0.7984066004126541 0.16025343018930566
 0.58128735449503732 -0.79788746637896379 0.15962644674213275
 0.58223498369360616 -0.79732670056987709 0.15897344533493526
 0.5832537507354757 -0.79671863500785189 0.15828606661429445
 0.5843542012048889 -0.7960570023587018 0.15755448749519624
 0.58554668852381597 -0.79533590712748059 0.15676693016226603
 0.58684208300876151 -0.7945486473095984 0.1559128495936927
 0.58825241182672583 -0.79368708698469781 0.15498357310949126
 0.58979024050706341 -0.79274195765833122 0.15397292219951217
 0.59147006546692704 -0.79170173268798905 0.15287749381575066
 0.59330805113760965 -0.79055281505086195 0.15169641746082685
 0.59532243948217312 -0.78927964157861241 0.15042885507285989
 0.59753204150644557 -0.78786566983864847 0.14907429578179124
 0.59995629200740141 -0.7862936419538803 0.14763047213781064
 0.60261358999378967 -0.78454674801863578 0.14609333088194049
 0.60552060185176348 -0.78260900523518151 0.14445741814762497
 0.60869154673827419 -0.78046562276940334 0.14271654635862976
 0.61213926644729844 -0.77810191506359883 0.14086492909068427
 0.61587497570132743 -0.77550328469434837 0.13889805518136625
 0.61991017397286841 -0.77265359340561424 0.1368130140093399
 0.62425729180904277 -0.76953463374898035 0.13460787898210952
 0.62893057663074692 -0.76612526292405725 0.13228156065174196
 0.63394515427405607 -0.76240232726181034 0.12983155532542515
 0.63931716542323103 -0.75834017725219038 0.1272546170491336
 0.64506180123305323 -0.75391223001313346 0.12454566241581094
 0.65119215696613353 -0.74909158230098727 0.12169871006546382
 0.65771888270890577 -0.74385091999755393 0.11870838279978832
 0.66464987720698954 -0.73816251742472505 0.11557092453522319
 0.67199103718439845 -0.7319974308269287 0.11228449228015516
 0.67974685717690086 -0.72532470201238897 0.10884983605300121
 0.6879213933176892 -0.71811043798732022 0.10526896726722726
 0.69651834915458277 -0.71031757802770656 0.10154372277904548
 0.70553952508968532 -0.70190716189511393 0.097674534125164691
 0.71498539007611861 -0.69283733806638403 0.093660637189736981
 0.72485188584357374 -0.68306632665361711 0.08949936860642578
 0.73513209482638575 -0.67255017390823701 0.085188419002644275
 0.745814100336056 -0.66124480911917394 0.080725647429220851
 0.75688316238230857 -0.64910302063480352 0.076112726300731431
 0.7683217024869734 -0.63607458553031582 0.071350424875789603
 0.78010902536500215 -0.62210531598748209 0.066444596200004147
 0.79222220264832066 -0.60713620465171048 0.061397154919096565
 0.804631975824599 -0.59110688470378736 0.056214182697833105
 0.81730558131939801 -0.57395203263648076 0.050898437860245595
 0.83019932583941725 -0.55561028757337549 0.045456437590380497
 0.84326516659618567 -0.53601502466836248 0.039896768481693858
 0.8564423445210041 -0.51510652773981203 0.03423120785482496
 0.8696658253135735 -0.49281873696084727 0.02847884797488447
 0.88285813220421594 -0.46909298492327373 0.02265590202699164
 0.89593527763789738 -0.44386719717789652 0.016789566800316586
 0.9088012510605139 -0.41708699737824878 0.010895994164900063
 0.92134936346560148 -0.38870335288292668 0.0050053870082096396
 0.93346246684657463 -0.35867404740624298 -0.00086643287778422333
 0.94501011479213848 -0.3269727287991212 -0.0066871191260214815
 0.95585577336137617 -0.29357289338893416 -0.012437716791068289
 0.96584910378135957 -0.25847313677432704 -0.018087185817164252
 0.97483724124532611 -0.22166336792394939 -0.023615765958653438
 0.98265390099557348 -0.18316697882666258 -0.029002908917807872
 0.98913117498028924 -0.14299494747149746 -0.034233955070019105
 0.99408962047872151 -0.10119710230114973 -0.039306143824118636
 0.99734814558276375 -0.057810465797040966 -0.044211158624846668
 0.99871709153112997 -0.012906889252102685 -0.048965123235161709
 0.9980037178066874 0.033453632704013199 -0.053567095337856134
 0.99500674623246887 0.081187221595074327 -0.058053509812477755
 0.98951803941435357 0.13021434854716457 -0.062436152235794906
 0.98131671501165685 0.18044120394045604 -0.066771826088922723
 0.97017173542850088 0.23176207014180211 -0.071085488105782066
 0.95583276911812332 0.28406324407737027 -0.075443958301648587
 0.93803908417144721 0.33719805514580031 -0.079875829715142746
 0.91650424761335725 0.39101092730671438 -0.084441807378913256
 0.89093898821909145 0.44528410307340499 -0.089161577045580462
 0.86103176287768213 0.49977466976605472 -0.094072221064360806
 0.82649513934484953 0.55414050101491863 -0.099166979253544493
 0.78704735218628907 0.60798824787570793 -0.10443541478626049
 0.74248720004659519 0.66079686304783414 -0.10981923125349818
 0.69267916433343169 0.7119803796541252 -0.11523677488504445
 0.63765386006146596 0.76082993769641249 -0.12056268350358475
 0.57759244419350142 0.80659850099711405 -0.12564165949153061
 0.51293469169719919 0.84848192750666107 -0.13029359442459285
 0.44433988319128537 0.88573148351084352 -0.13431979497912858
 0.37276352572091404 0.91767764394564044 -0.13753216240026181
 0.29936227852757458 0.94384910131195665 -0.13975371246371426
 0.22551053438913768 0.96400333751905076 -0.14086363665494586
 0.15264887798744226 0.97820123043503338 -0.1407859113141707
 0.082257490164136082 0.98679485910024023 -0.1395335492461727
 0.015693901107319431 0.99042237447697867 -0.13717587835846862
 -0.045824015763602448 0.98993861782067105 -0.13387192583434512
 -0.10133024734403955 0.98634576984044597 -0.12982373932010202
 -0.15007595415806116 0.98070162869834543 -0.1253057199490912
 -0.19156732830453066 0.97403945564940908 -0.12061964004450881
 -0.22548317820692546 0.96730165428305659 -0.11612426950024725
 -0.25165596007141489 0.96129104665387899 -0.11219982791263186
 -0.26997023865155467 0.9566484459347977 -0.10926948857278997
 -0.28033952317339417 0.95383552057416143 -0.10773834710971071
 -0.28301340679671416 0.9530377635387427 -0.10780738769856731
 -0.35975664971903071 0.92358525166739835 -0.13253465918546475
 -0.37434045388919118 0.91809522665627419 -0.13027040866213241
 -0.39201633930194213 0.91088990891305288 -0.12885171151628125
 -0.40876510107249747 0.90354078695199402 -0.12855013986519878
 -0.42274865915879017 0.89699203898103608 -0.1291853443084339
 -0.43306225337141541 0.89186539515713059 -0.13051130842224887
 -0.43920962294764471 0.88858870999907547 -0.13230650616038087
 -0.44092611857893638 0.88742529343256793 -0.13438938399678202
 -0.43802376430032697 0.88852193807781943 -0.13661605858246412
 -0.43039304150258451 0.89189464751687098 -0.13887320676397952
 -0.41791216643124424 0.89746865975997425 -0.14106532492919627
 -0.40050374619065748 0.90504989888655263 -0.14311334603275264
 -0.37805736465624784 0.91436599665215945 -0.144939481148085
 -0.35051388523724464 0.92503163067631766 -0.14648036900624037
 -0.31779058731315663 0.93659158433349032 -0.14766633594303635
 -0.27988228024120748 0.94848767145879087 -0.14844880025673171
 -0.23678453601056065 0.96010475708470056 -0.14876807093456515
 -0.18859961823946189 0.97074674616452838 -0.14859656392699708
 -0.13545405398487123 0.97968346317598198 -0.14789358078895115
 -0.07759920990401839 0.98613782230226066 -0.14666478120948895
 -0.015324934701561403 0.98932761206949771 -0.144900042695847
 0.050953129531165674 0.98846149615866108 -0.14264518639884535
 0.12077992970539658 0.98276889138712431 -0.13991967231980731
 0.19359208435899997 0.97149818365431917 -0.13679687141852606
 0.26879180141163855 0.95392913766194842 -0.13330479291239969
 0.34568831584765747 0.92936855401274643 -0.12951323908646259
 0.42353782347468327 0.89715370716601694 -0.12542303538266358
 0.50148335748981832 0.85665615226238179 -0.12105651139756923
 0.5785504043277736 0.80730636457763383 -0.11634372937384434
 0.65359052934688755 0.74863218449310509 -0.11121723018101468
 0.72525595413705446 0.68034607549637405 -0.1055131202525683
 0.7919900915559942 0.60244122441902115 -0.099077070998483383
 0.85205894402657756 0.51535125443011376 -0.091698639366250265
 0.90367353496568836 0.42005632816557348 -0.083227539736994857
 0.94516545891299919 0.31820469956199465 -0.073539271511487536
 0.97525003570254121 0.21204841975626323 -0.062632543785667807
 0.99325480309815406 0.10433181295955096 -0.050594159020785241
 0.99928949736376083 -0.0020523471519967576 -0.037633606386445327
 0.994250297803002 -0.10435112418177155 -0.024024741427168268
 0.97967929196942982 -0.2003170263109412 -0.010078385595828842
 0.95752071138473938 -0.28833806129543271 0.0039050835655675322
 0.92984219304253346 -0.36753375422648243 0.017675846289204569
 0.89861839585014125 -0.43763225374687104 0.031032065998789132
 0.86556941896000239 -0.49886564763473656 0.04384799392467862
 0.83210295033808246 -0.55178376302863763 0.0560299821222092
 0.79929552787662461 -0.59713050905751186 0.06754120423226706
 0.7679263360016223 -0.63572863566988935 0.07834694802239911
 0.73852262227042209 -0.66840268612826592 0.088443120542743739
 0.7114043915387035 -0.69594265469281813 0.097814176265814484
 0.68674039444679003 -0.71906449739981348 0.10646069328264189
 0.66457186551815695 -0.73841866025980052 0.11437708573765107
 0.64486115607608652 -0.7545695812994333 0.12156823747102312
 0.62749636433506739 -0.76801898884368769 0.12804352979277003
 0.61233004344096764 -0.77919480296016097 0.13381844767990103
 0.59917763993514339 -0.78847176919888562 0.13891877115109716
 0.58784630971915963 -0.79616657368794541 0.1433719048194701
 0.57813491601415479 -0.80255026707742205 0.14721782398631245
 0.56985066894960335 -0.80784957100134436 0.15049679641319158
 0.56281102525001314 -0.8122529757884398 0.1532607359366823
 0.55684894317771327 -0.81591641971629869 0.15556236858315298
 0.55181515584947283 -0.81896648792863969 0.15746086950303348
 0.54757605097862905 -0.82150773789569365 0.15901416594803899
 0.54401696837025215 -0.82362403015350627 0.16027786833788482
 0.54103858300607433 -0.82538404305687485 0.16130230365951465
 0.53855905862581355 -0.82684223581367011 0.16212975497029819
 0.5365110263850742 -0.82804187710990773 0.16279609430061565
 0.53484126987998126 -0.82901660903676 0.16332874203385267
 0.53350734402683064 -0.82979239874328259 0.16375130184919481